<VTKFile type="UnstructuredGrid" version="1.0" byte_order="LittleEndian" header_type="UInt64">
  <UnstructuredGrid>
    <FieldData>
      <DataArray type="Float64" Name="ClusterID" NumberOfTuples="1" format="ascii" RangeMin="0" RangeMax="0">
        0
      </DataArray>
      <DataArray type="Float64" Name="TimeStep" NumberOfTuples="1" format="ascii" RangeMin="3" RangeMax="3">
        3
      </DataArray>
      <Array type="String" Name="FILE" NumberOfTuples="1" format="ascii">
        67 58 47 85 115 101 114 115 47 71 114 97 99 101 47 68 111 99 117 109 101 110 116 115 47 67 108 101 109 115 111 110 47 83 112 114 105 110 103 32 50 48 50 52 47 67 80 83 67 32 56 48 51 48 32 83 99 105 101 110 116 105 102 105 99 32 86 105 115 117 97 108 105 122 97 116 105 111 110 47 56 48 51 48 95 112 97 114 97 118 105 101 119 95 112 97 108 109 101 116 116 111 47 105 115 97 98 101 108 95 115 109 97 108 108 47 73 115 97 98 101 108 95 115 109 97 108 108 46 99 100 98 47 100 97 116 97 47 105 115 97 98 101 108 95 48 51 46 118 116 105 0
      </Array>
      <DataArray type="Float64" Name="ClusterAssignment" NumberOfTuples="1" format="ascii" RangeMin="1" RangeMax="1">
        1
      </DataArray>
    </FieldData>
    <Piece NumberOfPoints="163" NumberOfCells="0">
      <PointData>
        <DataArray type="Int32" Name="NodeId" format="ascii" RangeMin="0" RangeMax="162">
          0 2 2 4 4 6
          6 8 8 10 10 12
          12 14 14 16 16 18
          18 20 20 22 22 24
          24 26 26 28 28 30
          30 32 32 34 34 36
          36 38 38 40 40 42
          42 44 44 46 46 48
          48 50 50 52 52 54
          54 56 56 58 58 60
          60 62 62 64 64 66
          66 68 68 70 70 72
          72 74 74 76 76 78
          78 80 80 82 82 84
          84 86 86 88 88 90
          90 92 92 94 94 96
          96 98 98 100 100 102
          102 104 104 106 106 108
          108 110 110 112 112 114
          114 116 116 118 118 120
          120 122 122 124 124 126
          126 128 128 130 130 132
          132 134 134 136 136 138
          138 140 140 142 142 144
          144 146 146 148 148 150
          150 152 152 154 154 156
          156 158 158 160 160 162
          162
        </DataArray>
        <DataArray type="Float32" Name="Scalar" format="ascii" RangeMin="0" RangeMax="70.75894927978516">
          0 4.1493683 4.1493683 5.805127 5.805127 6.4380794
          6.4380794 6.243899 6.243899 7.8321943 7.8321943 6.6584716
          6.6584716 8.684548 8.684548 8.280106 8.280106 9.003773
          9.003773 9.244814 9.244814 10.42808 10.42808 9.692116
          9.692116 11.058534 11.058534 10.010857 10.010857 12.129775
          12.129775 10.344954 10.344954 11.760066 11.760066 12.26299
          12.26299 10.431184 10.431184 12.452481 12.452481 14.530695
          14.530695 10.645031 10.645031 14.12002 14.12002 12.593695
          12.593695 14.276345 14.276345 10.694428 10.694428 13.558237
          13.558237 15.510149 15.510149 14.151228 14.151228 10.921392
          10.921392 13.727066 13.727066 11.236405 11.236405 14.451643
          14.451643 12.076822 12.076822 12.666609 12.666609 12.823345
          12.823345 14.197397 14.197397 19.115791 19.115791 14.406193
          14.406193 14.572613 14.572613 15.847382 15.847382 16.365318
          16.365318 17.798035 17.798035 16.634865 16.634865 17.952225
          17.952225 18.579382 18.579382 19.54868 19.54868 22.84891
          22.84891 20.374537 20.374537 25.744606 25.744606 25.37686
          25.37686 35.09886 35.09886 32.595592 32.595592 25.72924
          25.72924 28.515116 28.515116 34.345997 34.345997 29.017307
          29.017307 36.665245 36.665245 35.872723 35.872723 45.27766
          45.27766 40.03021 40.03021 39.465324 39.465324 38.160366
          38.160366 47.300358 47.300358 46.753002 46.753002 42.116657
          42.116657 41.6867 41.6867 47.648525 47.648525 49.039833
          49.039833 49.75232 49.75232 49.67535 49.67535 53.493454
          53.493454 51.498184 51.498184 64.90024 64.90024 56.381428
          56.381428 65.716995 65.716995 66.35559 66.35559 65.93956
          65.93956 69.26751 69.26751 70.75895 70.75895 68.684494
          68.684494
        </DataArray>
        <DataArray type="Int32" Name="VertexId" format="ascii" RangeMin="0" RangeMax="387464">
          0 31544 31544 23625 23625 15671
          15671 22881 22881 23876 23876 37136
          37136 23251 23251 382577 382577 37629
          37629 383211 383211 381955 381955 384335
          384335 383583 383583 383612 383612 368585
          368585 386084 386084 379975 379975 384964
          384964 290976 290976 384844 384844 385336
          385336 372870 372870 306476 306476 384962
          384962 384724 384724 354463 354463 387464
          387464 385221 385221 384588 384588 266993
          266993 338461 338461 384710 384710 269623
          269623 336085 336085 384460 384460 382836
          382836 253375 253375 367459 367459 382837
          382837 19951 19951 267626 267626 234726
          234726 18944 18944 222932 222932 218856
          218856 296847 296847 236586 236586 242186
          242186 296871 296871 278530 278530 289217
          289217 244139 244139 281044 281044 291473
          291473 242592 242592 195218 195218 291475
          291475 164094 164094 210841 210841 23216
          23216 195343 195343 226334 226334 210842
          210842 102099 102099 38840 38840 226335
          226335 242204 242204 117850 117850 101972
          101972 118225 118225 117849 117849 101959
          101959 118100 118100 25342 25342 117460
          117460 24963 24963 25217 25217 40963
          40963 56589 56589 40087 40087 56463
          56463
        </DataArray>
        <DataArray type="Int32" Name="CriticalType" format="ascii" RangeMin="0" RangeMax="4">
          0 2 2 2 2 3
          3 2 2 3 3 4
          4 3 3 2 2 3
          3 2 2 3 3 2
          2 3 3 2 2 3
          3 2 2 3 3 2
          2 2 2 2 2 3
          3 2 2 3 3 2
          2 3 3 2 2 3
          3 3 3 3 3 2
          2 3 3 2 2 3
          3 2 2 3 3 2
          2 2 2 3 3 3
          3 2 2 3 3 2
          2 3 3 2 2 3
          3 2 2 3 3 2
          2 3 3 2 2 2
          2 3 3 3 3 2
          2 3 3 2 2 3
          3 2 2 2 2 2
          2 3 3 2 2 3
          3 2 2 3 3 3
          3 3 3 2 2 3
          3 2 2 3 3 2
          2 3 3 4 4 3
          3 2 2 3 3 2
          2 3 3 3 3 3
          3
        </DataArray>
        <DataArray type="Float64" Name="RegionSize" format="ascii" RangeMin="0" RangeMax="10455">
          4812 3199 3199 118 118 2
          2 439 439 25 25 1238
          1238 6 6 241 241 14
          14 141 141 1 1 96
          96 4 4 1501 1501 3
          3 103 103 38 38 78
          78 949 949 8 8 0
          0 1498 1498 3 3 5
          5 4 4 73 73 1
          1 0 0 3 3 574
          574 2 2 62 62 6
          6 1805 1805 4 4 10
          10 3680 3680 1 1 1
          1 4271 4271 14 14 1000
          1000 179 179 579 579 65
          65 10455 10455 5 5 720
          720 69 69 4501 4501 3582
          3582 0 0 719 719 458
          458 4 4 756 756 2
          2 253 253 59 59 153
          153 1 1 79 79 1
          1 23 23 5 5 0
          0 2 2 56 56 1
          1 384 384 1 1 305
          305 3 3 49 49 1
          1 15 15 0 0 0
          0 3 3 3 3 6
          6
        </DataArray>
        <DataArray type="Float64" Name="RegionSpan" format="ascii" RangeMin="4" RangeMax="572">
          145 153 153 531 531 12
          12 239 239 8 8 166
          166 8 8 314 314 11
          11 12 12 4 4 63
          63 17 17 386 386 5
          5 172 172 15 15 14
          14 96 96 12 12 4
          4 480 480 8 8 8
          8 8 8 21 21 4
          4 4 4 12 12 540
          540 4 4 35 35 16
          16 254 254 8 8 48
          48 121 121 4 4 4
          4 311 311 16 16 572
          572 36 36 157 157 21
          21 105 105 8 8 99
          99 96 96 214 214 124
          124 4 4 97 97 76
          76 11 11 78 78 8
          8 80 80 8 8 50
          50 9 9 28 28 4
          4 11 11 5 5 4
          4 8 8 6 6 4
          4 12 12 4 4 84
          84 4 4 42 42 4
          4 20 20 4 4 5
          5 5 5 4 4 5
          5
        </DataArray>
        <DataArray type="Float64" Name="Persistence" format="ascii" RangeMin="1.4302034378051758" RangeMax="70.75894927978516">
          70.75894927978516 2.2887110710144043 2.2887110710144043 2.027067184448242 2.027067184448242 2.2887110710144043
          2.2887110710144043 2.4406495094299316 2.4406495094299316 2.027067184448242 2.027067184448242 2.3453011512756348
          2.3453011512756348 2.4406495094299316 2.4406495094299316 2.1479740142822266 2.1479740142822266 2.3453011512756348
          2.3453011512756348 1.8137197494506836 1.8137197494506836 2.1479740142822266 2.1479740142822266 2.43765926361084
          2.43765926361084 1.8137197494506836 1.8137197494506836 1.7492094039916992 1.7492094039916992 2.43765926361084
          2.43765926361084 5.165195465087891 5.165195465087891 1.7492094039916992 1.7492094039916992 2.267704963684082
          2.267704963684082 3.688836097717285 3.688836097717285 1.8238639831542969 1.8238639831542969 2.267704963684082
          2.267704963684082 2.913206100463867 2.913206100463867 3.688836097717285 3.688836097717285 1.5575332641601562
          1.5575332641601562 1.8238639831542969 1.8238639831542969 3.032637596130371 3.032637596130371 2.913206100463867
          2.913206100463867 5.165195465087891 5.165195465087891 1.5575332641601562 1.5575332641601562 3.5302505493164062
          3.5302505493164062 3.032637596130371 3.032637596130371 1.4302034378051758 1.4302034378051758 3.5302505493164062
          3.5302505493164062 7.038969039916992 7.038969039916992 1.4302034378051758 1.4302034378051758 1.5828475952148438
          1.5828475952148438 1.649984359741211 1.649984359741211 7.038969039916992 7.038969039916992 1.5828475952148438
          1.5828475952148438 3.225421905517578 3.225421905517578 1.649984359741211 1.649984359741211 1.5869064331054688
          1.5869064331054688 3.225421905517578 3.225421905517578 2.9138145446777344 2.9138145446777344 1.5869064331054688
          1.5869064331054688 1.7951545715332031 1.7951545715332031 2.9138145446777344 2.9138145446777344 12.24995231628418
          12.24995231628418 1.7951545715332031 1.7951545715332031 6.850986480712891 6.850986480712891 3.138256072998047
          3.138256072998047 12.24995231628418 12.24995231628418 6.850986480712891 6.850986480712891 3.288066864013672
          3.288066864013672 3.138256072998047 3.138256072998047 7.770660400390625 7.770660400390625 3.288066864013672
          3.288066864013672 3.3649635314941406 3.3649635314941406 2.2876434326171875 2.2876434326171875 1.475341796875
          1.475341796875 3.3649635314941406 3.3649635314941406 2.22137451171875 2.22137451171875 2.2876434326171875
          2.2876434326171875 1.7394752502441406 1.7394752502441406 1.475341796875 1.475341796875 7.770660400390625
          7.770660400390625 2.22137451171875 2.22137451171875 2.026824951171875 2.026824951171875 1.7394752502441406
          1.7394752502441406 1.7458648681640625 1.7458648681640625 2.026824951171875 2.026824951171875 2.8879737854003906
          2.8879737854003906 1.7458648681640625 1.7458648681640625 1.455352783203125 1.455352783203125 2.8879737854003906
          2.8879737854003906 3.5505142211914062 3.5505142211914062 1.455352783203125 1.455352783203125 2.74493408203125
          2.74493408203125 3.5505142211914062 3.5505142211914062 70.75894927978516 70.75894927978516 2.74493408203125
          2.74493408203125
        </DataArray>
        <DataArray type="Int32" Name="ClusterID" format="ascii" RangeMin="1" RangeMax="1">
          1 1 1 1 1 1
          1 1 1 1 1 1
          1 1 1 1 1 1
          1 1 1 1 1 1
          1 1 1 1 1 1
          1 1 1 1 1 1
          1 1 1 1 1 1
          1 1 1 1 1 1
          1 1 1 1 1 1
          1 1 1 1 1 1
          1 1 1 1 1 1
          1 1 1 1 1 1
          1 1 1 1 1 1
          1 1 1 1 1 1
          1 1 1 1 1 1
          1 1 1 1 1 1
          1 1 1 1 1 1
          1 1 1 1 1 1
          1 1 1 1 1 1
          1 1 1 1 1 1
          1 1 1 1 1 1
          1 1 1 1 1 1
          1 1 1 1 1 1
          1 1 1 1 1 1
          1 1 1 1 1 1
          1 1 1 1 1 1
          1 1 1 1 1 1
          1
        </DataArray>
        <DataArray type="Int32" Name="TreeID" format="ascii" RangeMin="1" RangeMax="1">
          1 1 1 1 1 1
          1 1 1 1 1 1
          1 1 1 1 1 1
          1 1 1 1 1 1
          1 1 1 1 1 1
          1 1 1 1 1 1
          1 1 1 1 1 1
          1 1 1 1 1 1
          1 1 1 1 1 1
          1 1 1 1 1 1
          1 1 1 1 1 1
          1 1 1 1 1 1
          1 1 1 1 1 1
          1 1 1 1 1 1
          1 1 1 1 1 1
          1 1 1 1 1 1
          1 1 1 1 1 1
          1 1 1 1 1 1
          1 1 1 1 1 1
          1 1 1 1 1 1
          1 1 1 1 1 1
          1 1 1 1 1 1
          1 1 1 1 1 1
          1 1 1 1 1 1
          1 1 1 1 1 1
          1 1 1 1 1 1
          1 1 1 1 1 1
          1
        </DataArray>
        <DataArray type="Int32" Name="TrueNodeId" format="ascii" RangeMin="0" RangeMax="81">
          81 71 71 69 69 70
          70 67 67 68 68 65
          65 66 66 63 63 64
          64 61 61 62 62 59
          59 60 60 57 57 58
          58 79 79 56 56 45
          45 55 55 43 43 44
          44 53 53 54 54 41
          41 42 42 51 51 52
          52 78 78 40 40 49
          49 50 50 47 47 48
          48 77 77 46 46 39
          39 37 37 76 76 38
          38 35 35 36 36 33
          33 34 34 31 31 32
          32 29 29 30 30 75
          75 28 28 23 23 27
          27 74 74 22 22 25
          25 26 26 73 73 24
          24 19 19 21 21 15
          15 18 18 17 17 20
          20 13 13 14 14 72
          72 16 16 11 11 12
          12 9 9 10 10 7
          7 8 8 5 5 6
          6 3 3 4 4 1
          1 2 2 80 80 0
          0
        </DataArray>
        <DataArray type="Int32" Name="isImportantPair" format="ascii" RangeMin="0" RangeMax="1">
          1 0 0 0 0 0
          0 0 0 0 0 0
          0 0 0 0 0 0
          0 0 0 0 0 0
          0 0 0 0 0 0
          0 0 0 0 0 0
          0 0 0 0 0 0
          0 0 0 0 0 0
          0 0 0 0 0 0
          0 0 0 0 0 0
          0 0 0 0 0 0
          0 0 0 0 0 0
          0 0 0 0 0 0
          0 0 0 0 0 0
          0 0 0 0 0 0
          0 0 0 0 0 1
          1 0 0 0 0 0
          0 1 1 0 0 0
          0 0 0 0 0 0
          0 0 0 0 0 0
          0 0 0 0 0 0
          0 0 0 0 0 0
          0 0 0 0 0 0
          0 0 0 0 0 0
          0 0 0 0 0 0
          0 0 0 0 0 0
          0 0 0 1 1 0
          0
        </DataArray>
        <DataArray type="Int32" Name="isMultiPersPairNode" format="ascii" RangeMin="0" RangeMax="0">
          0 0 0 0 0 0
          0 0 0 0 0 0
          0 0 0 0 0 0
          0 0 0 0 0 0
          0 0 0 0 0 0
          0 0 0 0 0 0
          0 0 0 0 0 0
          0 0 0 0 0 0
          0 0 0 0 0 0
          0 0 0 0 0 0
          0 0 0 0 0 0
          0 0 0 0 0 0
          0 0 0 0 0 0
          0 0 0 0 0 0
          0 0 0 0 0 0
          0 0 0 0 0 0
          0 0 0 0 0 0
          0 0 0 0 0 0
          0 0 0 0 0 0
          0 0 0 0 0 0
          0 0 0 0 0 0
          0 0 0 0 0 0
          0 0 0 0 0 0
          0 0 0 0 0 0
          0 0 0 0 0 0
          0 0 0 0 0 0
          0 0 0 0 0 0
          0
        </DataArray>
        <DataArray type="Int32" Name="BranchNodeID" format="ascii" RangeMin="0" RangeMax="40">
          0 1 1 2 2 1
          1 3 3 2 2 4
          4 3 3 5 5 4
          4 6 6 5 5 7
          7 6 6 8 8 7
          7 9 9 8 8 10
          10 11 11 12 12 10
          10 13 13 11 11 14
          14 12 12 15 15 13
          13 9 9 14 14 16
          16 15 15 17 17 16
          16 18 18 17 17 19
          19 20 20 18 18 19
          19 21 21 20 20 22
          22 21 21 23 23 22
          22 24 24 23 23 25
          25 24 24 26 26 27
          27 25 25 26 26 28
          28 27 27 29 29 28
          28 30 30 31 31 32
          32 30 30 33 33 31
          31 34 34 32 32 29
          29 33 33 35 35 34
          34 36 36 35 35 37
          37 36 36 38 38 37
          37 39 39 38 38 40
          40 39 39 0 0 40
          40
        </DataArray>
        <DataArray type="Int32" Name="isDummyNode" format="ascii" RangeMin="0" RangeMax="1">
          0 0 1 0 1 0
          1 0 1 0 1 0
          1 0 1 0 1 0
          1 0 1 0 1 0
          1 0 1 0 1 0
          1 0 1 0 1 0
          1 0 1 0 1 0
          1 0 1 0 1 0
          1 0 1 0 1 0
          1 0 1 0 1 0
          1 0 1 0 1 0
          1 0 1 0 1 0
          1 0 1 0 1 0
          1 0 1 0 1 0
          1 0 1 0 1 0
          1 0 1 0 1 0
          1 0 1 0 1 0
          1 0 1 0 1 0
          1 0 1 0 1 0
          1 0 1 0 1 0
          1 0 1 0 1 0
          1 0 1 0 1 0
          1 0 1 0 1 0
          1 0 1 0 1 0
          1 0 1 0 1 0
          1 0 1 0 1 0
          1 0 1 0 1 0
          1
        </DataArray>
        <DataArray type="Int32" Name="BranchBaryNodeID" format="ascii" RangeMin="0" RangeMax="40">
          0 1 1 2 2 1
          1 3 3 2 2 4
          4 3 3 5 5 4
          4 6 6 5 5 7
          7 6 6 8 8 7
          7 9 9 8 8 10
          10 11 11 12 12 10
          10 13 13 11 11 14
          14 12 12 15 15 13
          13 9 9 14 14 16
          16 15 15 17 17 16
          16 18 18 17 17 19
          19 20 20 18 18 19
          19 21 21 20 20 22
          22 21 21 23 23 22
          22 24 24 23 23 25
          25 24 24 26 26 27
          27 25 25 26 26 28
          28 27 27 29 29 28
          28 30 30 31 31 32
          32 30 30 33 33 31
          31 34 34 32 32 29
          29 33 33 35 35 34
          34 36 36 35 35 37
          37 36 36 38 38 37
          37 39 39 38 38 40
          40 39 39 0 0 40
          40
        </DataArray>
        <DataArray type="Float32" Name="PersistenceBarycenter" format="ascii" RangeMin="1.4302034378051758" RangeMax="70.75894927978516">
          70.75895 2.288711 2.288711 2.0270672 2.0270672 2.288711
          2.288711 2.4406495 2.4406495 2.0270672 2.0270672 2.3453012
          2.3453012 2.4406495 2.4406495 2.147974 2.147974 2.3453012
          2.3453012 1.8137197 1.8137197 2.147974 2.147974 2.4376593
          2.4376593 1.8137197 1.8137197 1.7492094 1.7492094 2.4376593
          2.4376593 5.1651955 5.1651955 1.7492094 1.7492094 2.267705
          2.267705 3.688836 3.688836 1.823864 1.823864 2.267705
          2.267705 2.913206 2.913206 3.688836 3.688836 1.5575333
          1.5575333 1.823864 1.823864 3.0326376 3.0326376 2.913206
          2.913206 5.1651955 5.1651955 1.5575333 1.5575333 3.5302505
          3.5302505 3.0326376 3.0326376 1.4302034 1.4302034 3.5302505
          3.5302505 7.038969 7.038969 1.4302034 1.4302034 1.5828476
          1.5828476 1.6499844 1.6499844 7.038969 7.038969 1.5828476
          1.5828476 3.225422 3.225422 1.6499844 1.6499844 1.5869064
          1.5869064 3.225422 3.225422 2.9138145 2.9138145 1.5869064
          1.5869064 1.7951546 1.7951546 2.9138145 2.9138145 12.249952
          12.249952 1.7951546 1.7951546 6.8509865 6.8509865 3.138256
          3.138256 12.249952 12.249952 6.8509865 6.8509865 3.2880669
          3.2880669 3.138256 3.138256 7.7706604 7.7706604 3.2880669
          3.2880669 3.3649635 3.3649635 2.2876434 2.2876434 1.4753418
          1.4753418 3.3649635 3.3649635 2.2213745 2.2213745 2.2876434
          2.2876434 1.7394753 1.7394753 1.4753418 1.4753418 7.7706604
          7.7706604 2.2213745 2.2213745 2.026825 2.026825 1.7394753
          1.7394753 1.7458649 1.7458649 2.026825 2.026825 2.8879738
          2.8879738 1.7458649 1.7458649 1.4553528 1.4553528 2.8879738
          2.8879738 3.5505142 3.5505142 1.4553528 1.4553528 2.744934
          2.744934 3.5505142 3.5505142 70.75895 70.75895 2.744934
          2.744934
        </DataArray>
        <DataArray type="Int32" Name="PersistenceBarycenterOrder" format="ascii" RangeMin="0" RangeMax="40">
          0 21 21 26 26 21
          21 18 18 26 26 20
          20 18 18 25 25 20
          20 29 29 25 25 19
          19 29 29 31 31 19
          19 5 5 31 31 23
          23 6 6 28 28 23
          23 15 15 6 6 37
          37 28 28 13 13 15
          15 5 5 37 37 8
          8 13 13 40 40 8
          8 3 3 40 40 36
          36 34 34 3 3 36
          36 11 11 34 34 35
          35 11 11 14 14 35
          35 30 30 14 14 1
          1 30 30 4 4 12
          12 1 1 4 4 10
          10 12 12 2 2 10
          10 9 9 22 22 38
          38 9 9 24 24 22
          22 33 33 38 38 2
          2 24 24 27 27 33
          33 32 32 27 27 16
          16 32 32 39 39 16
          16 7 7 39 39 17
          17 7 7 0 0 17
          17
        </DataArray>
        <DataArray type="Float64" Name="Birth" format="ascii" RangeMin="0" RangeMax="65.93955993652344">
          0 4.1493682861328125 4.1493682861328125 5.805127143859863 5.805127143859863 4.1493682861328125
          4.1493682861328125 6.243898868560791 6.243898868560791 5.805127143859863 5.805127143859863 6.658471584320068
          6.658471584320068 6.243898868560791 6.243898868560791 8.280105590820312 8.280105590820312 6.658471584320068
          6.658471584320068 9.244813919067383 9.244813919067383 8.280105590820312 8.280105590820312 9.692115783691406
          9.692115783691406 9.244813919067383 9.244813919067383 10.010856628417969 10.010856628417969 9.692115783691406
          9.692115783691406 10.344953536987305 10.344953536987305 10.010856628417969 10.010856628417969 12.26298999786377
          12.26298999786377 10.431183815002441 10.431183815002441 12.452481269836426 12.452481269836426 12.26298999786377
          12.26298999786377 10.645030975341797 10.645030975341797 10.431183815002441 10.431183815002441 12.593694686889648
          12.593694686889648 12.452481269836426 12.452481269836426 10.694428443908691 10.694428443908691 10.645030975341797
          10.645030975341797 10.344953536987305 10.344953536987305 12.593694686889648 12.593694686889648 10.921392440795898
          10.921392440795898 10.694428443908691 10.694428443908691 11.236405372619629 11.236405372619629 10.921392440795898
          10.921392440795898 12.076822280883789 12.076822280883789 11.236405372619629 11.236405372619629 12.823345184326172
          12.823345184326172 14.197397232055664 14.197397232055664 12.076822280883789 12.076822280883789 12.823345184326172
          12.823345184326172 14.572612762451172 14.572612762451172 14.197397232055664 14.197397232055664 16.365318298339844
          16.365318298339844 14.572612762451172 14.572612762451172 16.634864807128906 16.634864807128906 16.365318298339844
          16.365318298339844 18.579381942749023 18.579381942749023 16.634864807128906 16.634864807128906 22.848909378051758
          22.848909378051758 18.579381942749023 18.579381942749023 25.744606018066406 25.744606018066406 25.376859664916992
          25.376859664916992 22.848909378051758 22.848909378051758 25.744606018066406 25.744606018066406 25.72924041748047
          25.72924041748047 25.376859664916992 25.376859664916992 34.34599685668945 34.34599685668945 25.72924041748047
          25.72924041748047 36.665245056152344 36.665245056152344 35.87272262573242 35.87272262573242 45.27766036987305
          45.27766036987305 36.665245056152344 36.665245056152344 39.46532440185547 39.46532440185547 35.87272262573242
          35.87272262573242 47.300357818603516 47.300357818603516 45.27766036987305 45.27766036987305 34.34599685668945
          34.34599685668945 39.46532440185547 39.46532440185547 47.64852523803711 47.64852523803711 47.300357818603516
          47.300357818603516 49.7523193359375 49.7523193359375 47.64852523803711 47.64852523803711 53.49345397949219
          53.49345397949219 49.7523193359375 49.7523193359375 64.90023803710938 64.90023803710938 53.49345397949219
          53.49345397949219 65.71699523925781 65.71699523925781 64.90023803710938 64.90023803710938 65.93955993652344
          65.93955993652344 65.71699523925781 65.71699523925781 0 0 65.93955993652344
          65.93955993652344
        </DataArray>
      </PointData>
      <CellData>
      </CellData>
      <Points>
        <DataArray type="Float32" Name="Points" NumberOfComponents="3" format="ascii" RangeMin="295.25501862228776" RangeMax="315.1581627751566">
          298.1976 0 0 295.22586 4.1493683 0
          298.1976 4.1493683 0 295.26123 5.805127 0
          298.1976 5.805127 0 295.22586 6.4380794 0
          295.22586 6.4380794 0 295.29663 6.243899 0
          298.1976 6.243899 0 295.26123 7.832195 0
          295.26123 7.832195 0 295.332 6.658472 0
          298.1976 6.658472 0 295.29663 8.684548 0
          295.29663 8.684548 0 295.36737 8.280106 0
          298.1976 8.280106 0 295.332 9.003773 0
          295.332 9.003773 0 295.40277 9.244814 0
          298.1976 9.244814 0 295.36737 10.42808 0
          295.36737 10.42808 0 295.43814 9.692116 0
          298.1976 9.692116 0 295.40277 11.058534 0
          295.40277 11.058534 0 295.4735 10.010857 0
          298.1976 10.010857 0 295.43814 12.129775 0
          295.43814 12.129775 0 295.61502 10.344954 0
          298.1976 10.344954 0 295.4735 11.760067 0
          295.4735 11.760067 0 295.5089 12.26299 0
          295.61502 12.26299 0 295.65042 10.431184 0
          298.1976 10.431184 0 295.54428 12.452481 0
          295.61502 12.452481 0 295.5089 14.530695 0
          295.5089 14.530695 0 295.6858 10.645031 0
          298.1976 10.645031 0 295.65042 14.12002 0
          295.65042 14.12002 0 295.57965 12.593695 0
          295.61502 12.593695 0 295.54428 14.276345 0
          295.54428 14.276345 0 295.72116 10.694428 0
          298.1976 10.694428 0 295.6858 13.558237 0
          295.6858 13.558237 0 295.61502 15.510149 0
          295.61502 15.510149 0 295.57965 14.151228 0
          295.57965 14.151228 0 295.75656 10.921392 0
          298.1976 10.921392 0 295.72116 13.727066 0
          295.72116 13.727066 0 295.79193 11.236405 0
          298.1976 11.236405 0 295.75656 14.451643 0
          295.75656 14.451643 0 295.8627 12.076822 0
          298.1976 12.076822 0 295.79193 12.66661 0
          295.79193 12.66661 0 295.8273 12.823345 0
          295.8627 12.823345 0 295.89807 14.197398 0
          298.1976 14.197398 0 295.8627 19.115791 0
          295.8627 19.115791 0 295.8273 14.406193 0
          295.8273 14.406193 0 295.93344 14.572613 0
          298.1976 14.572613 0 295.89807 15.847382 0
          295.89807 15.847382 0 295.96884 16.365318 0
          298.1976 16.365318 0 295.93344 17.798035 0
          295.93344 17.798035 0 296.0042 16.634865 0
          298.1976 16.634865 0 295.96884 17.952227 0
          295.96884 17.952227 0 296.03958 18.579382 0
          298.1976 18.579382 0 296.0042 19.54868 0
          296.0042 19.54868 0 313.1976 22.84891 0
          298.1976 22.84891 0 296.03958 20.374537 0
          296.03958 20.374537 0 310.91754 25.744606 0
          313.1976 25.744606 0 296.0042 25.37686 0
          298.1976 25.37686 0 313.1976 35.09886 0
          313.1976 35.09886 0 310.91754 32.595592 0
          310.91754 32.595592 0 296.03958 25.729242 0
          298.1976 25.729242 0 296.0042 28.515116 0
          296.0042 28.515116 0 296.0042 34.345997 0
          298.1976 34.345997 0 296.03958 29.017307 0
          296.03958 29.017307 0 296.03958 36.665245 0
          298.1976 36.665245 0 295.96884 35.872723 0
          296.0042 35.872723 0 296.03958 45.277657 0
          298.1976 45.277657 0 296.03958 40.03021 0
          296.03958 40.03021 0 295.96884 39.46533 0
          296.0042 39.46533 0 295.96884 38.160366 0
          295.96884 38.160366 0 296.0042 47.300358 0
          298.1976 47.300358 0 296.03958 46.753002 0
          296.03958 46.753002 0 296.0042 42.116657 0
          296.0042 42.116657 0 295.96884 41.6867 0
          295.96884 41.6867 0 296.03958 47.648525 0
          298.1976 47.648525 0 296.0042 49.039833 0
          296.0042 49.039833 0 296.03958 49.75232 0
          298.1976 49.75232 0 296.03958 49.675346 0
          296.03958 49.675346 0 296.03958 53.493454 0
          298.1976 53.493454 0 296.03958 51.498184 0
          296.03958 51.498184 0 295.96884 64.90024 0
          298.1976 64.90024 0 296.03958 56.381428 0
          296.03958 56.381428 0 296.0042 65.716995 0
          298.1976 65.716995 0 295.96884 66.35559 0
          295.96884 66.35559 0 296.03958 65.93956 0
          298.1976 65.93956 0 296.0042 69.26751 0
          296.0042 69.26751 0 298.1976 70.75895 0
          298.1976 70.75895 0 296.03958 68.684494 0
          296.03958 68.684494 0
          <InformationKey name="L2_NORM_RANGE" location="vtkDataArray" length="2">
            <Value index="0">
              295.25501862
            </Value>
            <Value index="1">
              315.15816278
            </Value>
          </InformationKey>
          <InformationKey name="L2_NORM_FINITE_RANGE" location="vtkDataArray" length="2">
            <Value index="0">
              295.25501862
            </Value>
            <Value index="1">
              315.15816278
            </Value>
          </InformationKey>
        </DataArray>
      </Points>
      <Cells>
        <DataArray type="Int64" Name="connectivity" format="ascii" RangeMin="1e+299" RangeMax="-1e+299">
        </DataArray>
        <DataArray type="Int64" Name="offsets" format="ascii" RangeMin="1e+299" RangeMax="-1e+299">
        </DataArray>
        <DataArray type="UInt8" Name="types" format="ascii" RangeMin="1e+299" RangeMax="-1e+299">
        </DataArray>
      </Cells>
    </Piece>
  </UnstructuredGrid>
</VTKFile>
