<VTKFile type="UnstructuredGrid" version="1.0" byte_order="LittleEndian" header_type="UInt64">
  <UnstructuredGrid>
    <FieldData>
      <DataArray type="Float64" Name="ClusterAssignment" NumberOfTuples="1" format="ascii" RangeMin="2" RangeMax="2">
        2
      </DataArray>
    </FieldData>
    <Piece NumberOfPoints="87" NumberOfCells="0">
      <PointData>
        <DataArray type="Int32" Name="CriticalType" format="ascii" RangeMin="-1" RangeMax="-1">
          -1 -1 -1 -1 -1 -1
          -1 -1 -1 -1 -1 -1
          -1 -1 -1 -1 -1 -1
          -1 -1 -1 -1 -1 -1
          -1 -1 -1 -1 -1 -1
          -1 -1 -1 -1 -1 -1
          -1 -1 -1 -1 -1 -1
          -1 -1 -1 -1 -1 -1
          -1 -1 -1 -1 -1 -1
          -1 -1 -1 -1 -1 -1
          -1 -1 -1 -1 -1 -1
          -1 -1 -1 -1 -1 -1
          -1 -1 -1 -1 -1 -1
          -1 -1 -1 -1 -1 -1
          -1 -1 -1
        </DataArray>
        <DataArray type="Float64" Name="Persistence" format="ascii" RangeMin="1.447317123413086" RangeMax="68.24547576904297">
          68.24547576904297 1.6304092407226562 1.6304092407226562 2.0266427993774414 2.0266427993774414 1.6304092407226562
          1.6304092407226562 2.261077404022217 2.261077404022217 2.0266427993774414 2.0266427993774414 2.9816651344299316
          2.9816651344299316 2.261077404022217 2.261077404022217 1.6022567749023438 1.6022567749023438 2.9816651344299316
          2.9816651344299316 2.2310690879821777 2.2310690879821777 1.6022567749023438 1.6022567749023438 2.0470829010009766
          2.0470829010009766 2.2310690879821777 2.2310690879821777 1.676741600036621 1.676741600036621 2.0470829010009766
          2.0470829010009766 4.284445762634277 4.284445762634277 1.676741600036621 1.676741600036621 2.3642807006835938
          2.3642807006835938 1.447317123413086 1.447317123413086 1.569748878479004 1.569748878479004 2.3642807006835938
          2.3642807006835938 2.8380470275878906 2.8380470275878906 1.447317123413086 1.447317123413086 4.284445762634277
          4.284445762634277 1.569748878479004 1.569748878479004 2.3706016540527344 2.3706016540527344 2.8380470275878906
          2.8380470275878906 1.7032737731933594 1.7032737731933594 2.3706016540527344 2.3706016540527344 13.660955429077148
          13.660955429077148 1.7032737731933594 1.7032737731933594 4.648130416870117 4.648130416870117 1.6320514678955078
          1.6320514678955078 13.660955429077148 13.660955429077148 4.648130416870117 4.648130416870117 1.7475471496582031
          1.7475471496582031 1.6320514678955078 1.6320514678955078 5.314853668212891 5.314853668212891 1.7475471496582031
          1.7475471496582031 2.2590789794921875 2.2590789794921875 5.314853668212891 5.314853668212891 68.24547576904297
          68.24547576904297 2.2590789794921875 2.2590789794921875
        </DataArray>
        <DataArray type="Int32" Name="ClusterID" format="ascii" RangeMin="2" RangeMax="2">
          2 2 2 2 2 2
          2 2 2 2 2 2
          2 2 2 2 2 2
          2 2 2 2 2 2
          2 2 2 2 2 2
          2 2 2 2 2 2
          2 2 2 2 2 2
          2 2 2 2 2 2
          2 2 2 2 2 2
          2 2 2 2 2 2
          2 2 2 2 2 2
          2 2 2 2 2 2
          2 2 2 2 2 2
          2 2 2 2 2 2
          2 2 2
        </DataArray>
        <DataArray type="Int32" Name="TreeID" format="ascii" RangeMin="2" RangeMax="2">
          2 2 2 2 2 2
          2 2 2 2 2 2
          2 2 2 2 2 2
          2 2 2 2 2 2
          2 2 2 2 2 2
          2 2 2 2 2 2
          2 2 2 2 2 2
          2 2 2 2 2 2
          2 2 2 2 2 2
          2 2 2 2 2 2
          2 2 2 2 2 2
          2 2 2 2 2 2
          2 2 2 2 2 2
          2 2 2 2 2 2
          2 2 2
        </DataArray>
        <DataArray type="Int32" Name="TrueNodeId" format="ascii" RangeMin="0" RangeMax="43">
          43 37 37 35 35 36
          36 33 33 34 34 31
          31 32 32 29 29 30
          30 27 27 28 28 25
          25 26 26 23 23 24
          24 41 41 22 22 19
          19 21 21 15 15 18
          18 17 17 20 20 40
          40 14 14 13 13 16
          16 11 11 12 12 39
          39 10 10 9 9 7
          7 38 38 8 8 5
          5 6 6 3 3 4
          4 1 1 2 2 42
          42 0 0
        </DataArray>
        <DataArray type="Int32" Name="VertexId" format="ascii" RangeMin="-1" RangeMax="-1">
          -1 -1 -1 -1 -1 -1
          -1 -1 -1 -1 -1 -1
          -1 -1 -1 -1 -1 -1
          -1 -1 -1 -1 -1 -1
          -1 -1 -1 -1 -1 -1
          -1 -1 -1 -1 -1 -1
          -1 -1 -1 -1 -1 -1
          -1 -1 -1 -1 -1 -1
          -1 -1 -1 -1 -1 -1
          -1 -1 -1 -1 -1 -1
          -1 -1 -1 -1 -1 -1
          -1 -1 -1 -1 -1 -1
          -1 -1 -1 -1 -1 -1
          -1 -1 -1 -1 -1 -1
          -1 -1 -1
        </DataArray>
        <DataArray type="Int32" Name="isImportantPair" format="ascii" RangeMin="0" RangeMax="1">
          1 0 0 0 0 0
          0 0 0 0 0 0
          0 0 0 0 0 0
          0 0 0 0 0 0
          0 0 0 0 0 0
          0 0 0 0 0 0
          0 0 0 0 0 0
          0 0 0 0 0 0
          0 0 0 0 0 0
          0 0 0 0 0 1
          1 0 0 0 0 0
          0 1 1 0 0 0
          0 0 0 0 0 0
          0 0 0 0 0 1
          1 0 0
        </DataArray>
        <DataArray type="Int32" Name="isMultiPersPairNode" format="ascii" RangeMin="0" RangeMax="0">
          0 0 0 0 0 0
          0 0 0 0 0 0
          0 0 0 0 0 0
          0 0 0 0 0 0
          0 0 0 0 0 0
          0 0 0 0 0 0
          0 0 0 0 0 0
          0 0 0 0 0 0
          0 0 0 0 0 0
          0 0 0 0 0 0
          0 0 0 0 0 0
          0 0 0 0 0 0
          0 0 0 0 0 0
          0 0 0 0 0 0
          0 0 0
        </DataArray>
        <DataArray type="Int32" Name="NodeId" format="ascii" RangeMin="0" RangeMax="86">
          0 2 2 4 4 6
          6 8 8 10 10 12
          12 14 14 16 16 18
          18 20 20 22 22 24
          24 26 26 28 28 30
          30 32 32 34 34 36
          36 38 38 40 40 42
          42 44 44 46 46 48
          48 50 50 52 52 54
          54 56 56 58 58 60
          60 62 62 64 64 66
          66 68 68 70 70 72
          72 74 74 76 76 78
          78 80 80 82 82 84
          84 86 86
        </DataArray>
        <DataArray type="Int32" Name="BranchNodeID" format="ascii" RangeMin="0" RangeMax="21">
          0 1 1 2 2 1
          1 3 3 2 2 4
          4 3 3 5 5 4
          4 6 6 5 5 7
          7 6 6 8 8 7
          7 9 9 8 8 10
          10 11 11 12 12 10
          10 13 13 11 11 9
          9 12 12 14 14 13
          13 15 15 14 14 16
          16 15 15 17 17 18
          18 16 16 17 17 19
          19 18 18 20 20 19
          19 21 21 20 20 0
          0 21 21
        </DataArray>
        <DataArray type="Int32" Name="isDummyNode" format="ascii" RangeMin="0" RangeMax="1">
          0 0 1 0 1 0
          1 0 1 0 1 0
          1 0 1 0 1 0
          1 0 1 0 1 0
          1 0 1 0 1 0
          1 0 1 0 1 0
          1 0 1 0 1 0
          1 0 1 0 1 0
          1 0 1 0 1 0
          1 0 1 0 1 0
          1 0 1 0 1 0
          1 0 1 0 1 0
          1 0 1 0 1 0
          1 0 1 0 1 0
          1 0 1
        </DataArray>
        <DataArray type="Float32" Name="Scalar" format="ascii" RangeMin="0" RangeMax="68.24547576904297">
          0 4.71622 4.71622 4.81491 4.81491 6.346629
          6.346629 6.402103 6.402103 6.8415527 6.8415527 6.975126
          6.975126 8.66318 8.66318 7.447213 7.447213 9.956791
          9.956791 7.4504876 7.4504876 9.04947 9.04947 7.574028
          7.574028 9.681557 9.681557 9.025247 9.025247 9.621111
          9.621111 9.321024 9.321024 10.701988 10.701988 11.006116
          11.006116 9.847541 9.847541 11.449314 11.449314 13.370397
          13.370397 11.270831 11.270831 11.294858 11.294858 13.60547
          13.60547 13.019063 13.019063 15.0797615 15.0797615 14.108878
          14.108878 17.64908 17.64908 17.450363 17.450363 22.126005
          22.126005 19.352354 19.352354 27.765509 27.765509 30.192842
          30.192842 35.78696 35.78696 32.41364 32.41364 30.493153
          30.493153 31.824894 31.824894 46.190216 46.190216 32.2407
          32.2407 60.47409 60.47409 51.50507 51.50507 68.245476
          68.245476 62.73317 62.73317
        </DataArray>
        <DataArray type="Float32" Name="PercentMatchNode" format="ascii" RangeMin="0" RangeMax="0">
          0 0 0 0 0 0
          0 0 0 0 0 0
          0 0 0 0 0 0
          0 0 0 0 0 0
          0 0 0 0 0 0
          0 0 0 0 0 0
          0 0 0 0 0 0
          0 0 0 0 0 0
          0 0 0 0 0 0
          0 0 0 0 0 0
          0 0 0 0 0 0
          0 0 0 0 0 0
          0 0 0 0 0 0
          0 0 0 0 0 0
          0 0 0
        </DataArray>
        <DataArray type="Float64" Name="Birth" format="ascii" RangeMin="0" RangeMax="60.474090576171875">
          0 4.716219902038574 4.716219902038574 4.814909934997559 4.814909934997559 4.716219902038574
          4.716219902038574 6.402102947235107 6.402102947235107 4.814909934997559 4.814909934997559 6.975125789642334
          6.975125789642334 6.402102947235107 6.402102947235107 7.447213172912598 7.447213172912598 6.975125789642334
          6.975125789642334 7.4504876136779785 7.4504876136779785 7.447213172912598 7.447213172912598 7.574028015136719
          7.574028015136719 7.4504876136779785 7.4504876136779785 9.025246620178223 9.025246620178223 7.574028015136719
          7.574028015136719 9.321023941040039 9.321023941040039 9.025246620178223 9.025246620178223 11.006115913391113
          11.006115913391113 9.847540855407715 9.847540855407715 11.44931411743164 11.44931411743164 11.006115913391113
          11.006115913391113 11.270831108093262 11.270831108093262 9.847540855407715 9.847540855407715 9.321023941040039
          9.321023941040039 11.44931411743164 11.44931411743164 15.079761505126953 15.079761505126953 11.270831108093262
          11.270831108093262 17.649080276489258 17.649080276489258 15.079761505126953 15.079761505126953 22.126005172729492
          22.126005172729492 17.649080276489258 17.649080276489258 27.7655086517334 27.7655086517334 30.192842483520508
          30.192842483520508 22.126005172729492 22.126005172729492 27.7655086517334 27.7655086517334 30.493152618408203
          30.493152618408203 30.192842483520508 30.192842483520508 46.190216064453125 46.190216064453125 30.493152618408203
          30.493152618408203 60.474090576171875 60.474090576171875 46.190216064453125 46.190216064453125 0
          0 60.474090576171875 60.474090576171875
        </DataArray>
      </PointData>
      <CellData>
      </CellData>
      <Points>
        <DataArray type="Float32" Name="Points" NumberOfComponents="3" format="ascii" RangeMin="792.5805602863833" RangeMax="810.9835890613009">
          795.1936 0 0 792.5665 4.71622 0
          795.1936 4.71622 0 792.60065 4.81491 0
          795.1936 4.81491 0 792.5665 6.346629 0
          792.5665 6.346629 0 792.63477 6.402103 0
          795.1936 6.402103 0 792.60065 6.8415527 0
          792.60065 6.8415527 0 792.66895 6.975126 0
          795.1936 6.975126 0 792.63477 8.66318 0
          792.63477 8.66318 0 792.70306 7.447213 0
          795.1936 7.447213 0 792.66895 9.956791 0
          792.66895 9.956791 0 792.7372 7.4504876 0
          795.1936 7.4504876 0 792.70306 9.04947 0
          792.70306 9.04947 0 792.7713 7.574028 0
          795.1936 7.574028 0 792.7372 9.681557 0
          792.7372 9.681557 0 792.8054 9.025247 0
          795.1936 9.025247 0 792.7713 9.621111 0
          792.7713 9.621111 0 792.9078 9.321024 0
          795.1936 9.321024 0 792.8054 10.701988 0
          792.8054 10.701988 0 792.83954 11.006116 0
          792.9078 11.006116 0 792.9419 9.847541 0
          795.1936 9.847541 0 792.87366 11.449314 0
          792.9078 11.449314 0 792.83954 13.370397 0
          792.83954 13.370397 0 792.976 11.270831 0
          795.1936 11.270831 0 792.9419 11.294858 0
          792.9419 11.294858 0 792.9078 13.60547 0
          792.9078 13.60547 0 792.87366 13.019063 0
          792.87366 13.019063 0 792.976 15.0797615 0
          795.1936 15.0797615 0 792.976 14.108878 0
          792.976 14.108878 0 792.976 17.64908 0
          795.1936 17.64908 0 792.976 17.450363 0
          792.976 17.450363 0 810.1936 22.126005 0
          795.1936 22.126005 0 792.976 19.352354 0
          792.976 19.352354 0 807.9146 27.765509 0
          810.1936 27.765509 0 792.9419 30.192842 0
          795.1936 30.192842 0 810.1936 35.78696 0
          810.1936 35.78696 0 807.9146 32.41364 0
          807.9146 32.41364 0 792.976 30.493153 0
          795.1936 30.493153 0 792.9419 31.824894 0
          792.9419 31.824894 0 792.976 46.190216 0
          795.1936 46.190216 0 792.976 32.2407 0
          792.976 32.2407 0 792.976 60.47409 0
          795.1936 60.47409 0 792.976 51.50507 0
          792.976 51.50507 0 795.1936 68.245476 0
          795.1936 68.245476 0 792.976 62.73317 0
          792.976 62.73317 0
          <InformationKey name="L2_NORM_RANGE" location="vtkDataArray" length="2">
            <Value index="0">
              792.58056029
            </Value>
            <Value index="1">
              810.98358906
            </Value>
          </InformationKey>
          <InformationKey name="L2_NORM_FINITE_RANGE" location="vtkDataArray" length="2">
            <Value index="0">
              792.58056029
            </Value>
            <Value index="1">
              810.98358906
            </Value>
          </InformationKey>
        </DataArray>
      </Points>
      <Cells>
        <DataArray type="Int64" Name="connectivity" format="ascii" RangeMin="1e+299" RangeMax="-1e+299">
        </DataArray>
        <DataArray type="Int64" Name="offsets" format="ascii" RangeMin="1e+299" RangeMax="-1e+299">
        </DataArray>
        <DataArray type="UInt8" Name="types" format="ascii" RangeMin="1e+299" RangeMax="-1e+299">
        </DataArray>
      </Cells>
    </Piece>
  </UnstructuredGrid>
</VTKFile>
