<VTKFile type="UnstructuredGrid" version="1.0" byte_order="LittleEndian" header_type="UInt64">
  <UnstructuredGrid>
    <FieldData>
      <DataArray type="Float64" Name="Distance" NumberOfTuples="1" format="ascii" RangeMin="0" RangeMax="0">
        0
      </DataArray>
    </FieldData>
    <Piece NumberOfPoints="164" NumberOfCells="82">
      <PointData>
      </PointData>
      <CellData>
        <DataArray type="Int32" Name="MatchingType" format="ascii" RangeMin="1" RangeMax="3">
          2 3 2 1 2 1
          2 1 2 1 2 1
          2 1 2 1 2 1
          2 1 2 1 2 1
          2 1 2 1 2 1
          2 1 2 1 2 1
          2 1 2 1 2 1
          2 1 2 1 2 1
          2 1 2 1 2 1
          2 1 2 1 2 1
          2 1 2 1 2 1
          2 1 2 1 2 1
          2 1 2 1 2 1
          2 1 2 1
        </DataArray>
        <DataArray type="Float64" Name="MeanMatchedPersistence" format="ascii" RangeMin="1.4302034378051758" RangeMax="70.75894927978516">
          70.75894927978516 70.75894927978516 2.027067184448242 2.027067184448242 3.5505142211914062 3.5505142211914062
          1.455352783203125 1.455352783203125 2.8879737854003906 2.8879737854003906 1.7458648681640625 1.7458648681640625
          1.7394752502441406 1.7394752502441406 1.475341796875 1.475341796875 3.3649635314941406 3.3649635314941406
          7.770660400390625 7.770660400390625 3.138256072998047 3.138256072998047 12.24995231628418 12.24995231628418
          1.7951545715332031 1.7951545715332031 1.5869064331054688 1.5869064331054688 1.649984359741211 1.649984359741211
          7.038969039916992 7.038969039916992 1.8137197494506836 1.8137197494506836 2.1479740142822266 2.1479740142822266
          2.2887110710144043 2.2887110710144043 2.3453011512756348 2.3453011512756348 2.4406495094299316 2.4406495094299316
          2.74493408203125 2.74493408203125 2.026824951171875 2.026824951171875 3.288066864013672 3.288066864013672
          2.9138145446777344 2.9138145446777344 3.225421905517578 3.225421905517578 3.5302505493164062 3.5302505493164062
          2.913206100463867 2.913206100463867 3.688836097717285 3.688836097717285 1.4302034378051758 1.4302034378051758
          3.032637596130371 3.032637596130371 5.165195465087891 5.165195465087891 1.7492094039916992 1.7492094039916992
          2.43765926361084 2.43765926361084 2.22137451171875 2.22137451171875 2.2876434326171875 2.2876434326171875
          6.850986480712891 6.850986480712891 1.5828475952148438 1.5828475952148438 2.267704963684082 2.267704963684082
          1.8238639831542969 1.8238639831542969 1.5575332641601562 1.5575332641601562
        </DataArray>
        <DataArray type="Int32" Name="MatchingID" format="ascii" RangeMin="0" RangeMax="81">
          0 1 2 3 4 5
          6 7 8 9 10 11
          12 13 14 15 16 17
          18 19 20 21 22 23
          24 25 26 27 28 29
          30 31 32 33 34 35
          36 37 38 39 40 41
          42 43 44 45 46 47
          48 49 50 51 52 53
          54 55 56 57 58 59
          60 61 62 63 64 65
          66 67 68 69 70 71
          72 73 74 75 76 77
          78 79 80 81
        </DataArray>
        <DataArray type="Float64" Name="Cost" format="ascii" RangeMin="0" RangeMax="0">
          0 0 0 0 0 0
          0 0 0 0 0 0
          0 0 0 0 0 0
          0 0 0 0 0 0
          0 0 0 0 0 0
          0 0 0 0 0 0
          0 0 0 0 0 0
          0 0 0 0 0 0
          0 0 0 0 0 0
          0 0 0 0 0 0
          0 0 0 0 0 0
          0 0 0 0 0 0
          0 0 0 0 0 0
          0 0 0 0
        </DataArray>
        <DataArray type="Int32" Name="tree1NodeId" format="ascii" RangeMin="0" RangeMax="161">
          159 0 9 3 157 151
          153 147 149 143 145 139
          137 127 129 119 121 115
          131 111 109 101 103 95
          97 91 89 83 81 73
          75 67 25 19 21 15
          5 1 17 11 13 7
          161 155 141 135 113 107
          93 87 85 79 65 59
          53 43 45 37 69 63
          61 51 55 31 33 27
          29 23 133 123 125 117
          105 99 77 71 41 35
          49 39 57 47
        </DataArray>
        <DataArray type="Int32" Name="tree2NodeId" format="ascii" RangeMin="0" RangeMax="161">
          159 0 9 3 157 151
          153 147 149 143 145 139
          137 127 129 119 121 115
          131 111 109 101 103 95
          97 91 89 83 81 73
          75 67 25 19 21 15
          5 1 17 11 13 7
          161 155 141 135 113 107
          93 87 85 79 65 59
          53 43 45 37 69 63
          61 51 55 31 33 27
          29 23 133 123 125 117
          105 99 77 71 41 35
          49 39 57 47
        </DataArray>
        <DataArray type="Float32" Name="MatchingPercentMatch" format="ascii" RangeMin="33.33333206176758" RangeMax="33.33333206176758">
          33.333332 33.333332 33.333332 33.333332 33.333332 33.333332
          33.333332 33.333332 33.333332 33.333332 33.333332 33.333332
          33.333332 33.333332 33.333332 33.333332 33.333332 33.333332
          33.333332 33.333332 33.333332 33.333332 33.333332 33.333332
          33.333332 33.333332 33.333332 33.333332 33.333332 33.333332
          33.333332 33.333332 33.333332 33.333332 33.333332 33.333332
          33.333332 33.333332 33.333332 33.333332 33.333332 33.333332
          33.333332 33.333332 33.333332 33.333332 33.333332 33.333332
          33.333332 33.333332 33.333332 33.333332 33.333332 33.333332
          33.333332 33.333332 33.333332 33.333332 33.333332 33.333332
          33.333332 33.333332 33.333332 33.333332 33.333332 33.333332
          33.333332 33.333332 33.333332 33.333332 33.333332 33.333332
          33.333332 33.333332 33.333332 33.333332 33.333332 33.333332
          33.333332 33.333332 33.333332 33.333332
        </DataArray>
      </CellData>
      <Points>
        <DataArray type="Float32" Name="Points" NumberOfComponents="3" format="ascii" RangeMin="295.25501862228776" RangeMax="414.0870088677182">
          397.5968 70.75895 0 298.1976 70.75895 0
          397.5968 0 0 298.1976 0 0
          394.66043 7.832195 0 295.26123 7.832195 0
          394.66043 5.805127 0 295.26123 5.805127 0
          395.4034 69.26751 0 296.0042 69.26751 0
          395.4034 65.716995 0 296.0042 65.716995 0
          395.36804 66.35559 0 295.96884 66.35559 0
          395.36804 64.90024 0 295.96884 64.90024 0
          395.43878 56.381428 0 296.03958 56.381428 0
          395.43878 53.493454 0 296.03958 53.493454 0
          395.43878 51.498184 0 296.03958 51.498184 0
          395.43878 49.75232 0 296.03958 49.75232 0
          395.4034 49.039833 0 296.0042 49.039833 0
          395.4034 47.300358 0 296.0042 47.300358 0
          395.43878 46.753002 0 296.03958 46.753002 0
          395.43878 45.277657 0 296.03958 45.277657 0
          395.43878 40.03021 0 296.03958 40.03021 0
          395.43878 36.665245 0 296.03958 36.665245 0
          395.4034 42.116657 0 296.0042 42.116657 0
          395.4034 34.345997 0 296.0042 34.345997 0
          395.4034 28.515116 0 296.0042 28.515116 0
          395.4034 25.37686 0 296.0042 25.37686 0
          412.5968 35.09886 0 313.1976 35.09886 0
          412.5968 22.84891 0 313.1976 22.84891 0
          395.43878 20.374537 0 296.03958 20.374537 0
          395.43878 18.579382 0 296.03958 18.579382 0
          395.36804 17.952227 0 295.96884 17.952227 0
          395.36804 16.365318 0 295.96884 16.365318 0
          395.29727 15.847382 0 295.89807 15.847382 0
          395.29727 14.197398 0 295.89807 14.197398 0
          395.2619 19.115791 0 295.8627 19.115791 0
          395.2619 12.076822 0 295.8627 12.076822 0
          394.80197 11.058534 0 295.40277 11.058534 0
          394.80197 9.244814 0 295.40277 9.244814 0
          394.76657 10.42808 0 295.36737 10.42808 0
          394.76657 8.280106 0 295.36737 8.280106 0
          394.62506 6.4380794 0 295.22586 6.4380794 0
          394.62506 4.1493683 0 295.22586 4.1493683 0
          394.7312 9.003773 0 295.332 9.003773 0
          394.7312 6.658472 0 295.332 6.658472 0
          394.69583 8.684548 0 295.29663 8.684548 0
          394.69583 6.243899 0 295.29663 6.243899 0
          395.43878 68.684494 0 296.03958 68.684494 0
          395.43878 65.93956 0 296.03958 65.93956 0
          395.43878 49.675346 0 296.03958 49.675346 0
          395.43878 47.648525 0 296.03958 47.648525 0
          395.43878 29.017307 0 296.03958 29.017307 0
          395.43878 25.729242 0 296.03958 25.729242 0
          395.4034 19.54868 0 296.0042 19.54868 0
          395.4034 16.634865 0 296.0042 16.634865 0
          395.33264 17.798035 0 295.93344 17.798035 0
          395.33264 14.572613 0 295.93344 14.572613 0
          395.15576 14.451643 0 295.75656 14.451643 0
          395.15576 10.921392 0 295.75656 10.921392 0
          395.085 13.558237 0 295.6858 13.558237 0
          395.085 10.645031 0 295.6858 10.645031 0
          395.04962 14.12002 0 295.65042 14.12002 0
          395.04962 10.431184 0 295.65042 10.431184 0
          395.19113 12.66661 0 295.79193 12.66661 0
          395.19113 11.236405 0 295.79193 11.236405 0
          395.12036 13.727066 0 295.72116 13.727066 0
          395.12036 10.694428 0 295.72116 10.694428 0
          395.01422 15.510149 0 295.61502 15.510149 0
          395.01422 10.344954 0 295.61502 10.344954 0
          394.8727 11.760067 0 295.4735 11.760067 0
          394.8727 10.010857 0 295.4735 10.010857 0
          394.83734 12.129775 0 295.43814 12.129775 0
          394.83734 9.692116 0 295.43814 9.692116 0
          395.36804 41.6867 0 295.96884 41.6867 0
          395.36804 39.46533 0 295.96884 39.46533 0
          395.36804 38.160366 0 295.96884 38.160366 0
          395.36804 35.872723 0 295.96884 35.872723 0
          410.31674 32.595592 0 310.91754 32.595592 0
          410.31674 25.744606 0 310.91754 25.744606 0
          395.2265 14.406193 0 295.8273 14.406193 0
          395.2265 12.823345 0 295.8273 12.823345 0
          394.9081 14.530695 0 295.5089 14.530695 0
          394.9081 12.26299 0 295.5089 12.26299 0
          394.94348 14.276345 0 295.54428 14.276345 0
          394.94348 12.452481 0 295.54428 12.452481 0
          394.97885 14.151228 0 295.57965 14.151228 0
          394.97885 12.593695 0 295.57965 12.593695 0
          <InformationKey name="L2_NORM_RANGE" location="vtkDataArray" length="2">
            <Value index="0">
              295.25501862
            </Value>
            <Value index="1">
              414.08700887
            </Value>
          </InformationKey>
          <InformationKey name="L2_NORM_FINITE_RANGE" location="vtkDataArray" length="2">
            <Value index="0">
              295.25501862
            </Value>
            <Value index="1">
              414.08700887
            </Value>
          </InformationKey>
        </DataArray>
      </Points>
      <Cells>
        <DataArray type="Int64" Name="connectivity" format="ascii" RangeMin="0" RangeMax="163">
          0 1 2 3 4 5
          6 7 8 9 10 11
          12 13 14 15 16 17
          18 19 20 21 22 23
          24 25 26 27 28 29
          30 31 32 33 34 35
          36 37 38 39 40 41
          42 43 44 45 46 47
          48 49 50 51 52 53
          54 55 56 57 58 59
          60 61 62 63 64 65
          66 67 68 69 70 71
          72 73 74 75 76 77
          78 79 80 81 82 83
          84 85 86 87 88 89
          90 91 92 93 94 95
          96 97 98 99 100 101
          102 103 104 105 106 107
          108 109 110 111 112 113
          114 115 116 117 118 119
          120 121 122 123 124 125
          126 127 128 129 130 131
          132 133 134 135 136 137
          138 139 140 141 142 143
          144 145 146 147 148 149
          150 151 152 153 154 155
          156 157 158 159 160 161
          162 163
        </DataArray>
        <DataArray type="Int64" Name="offsets" format="ascii" RangeMin="2" RangeMax="164">
          2 4 6 8 10 12
          14 16 18 20 22 24
          26 28 30 32 34 36
          38 40 42 44 46 48
          50 52 54 56 58 60
          62 64 66 68 70 72
          74 76 78 80 82 84
          86 88 90 92 94 96
          98 100 102 104 106 108
          110 112 114 116 118 120
          122 124 126 128 130 132
          134 136 138 140 142 144
          146 148 150 152 154 156
          158 160 162 164
        </DataArray>
        <DataArray type="UInt8" Name="types" format="ascii" RangeMin="3" RangeMax="3">
          3 3 3 3 3 3
          3 3 3 3 3 3
          3 3 3 3 3 3
          3 3 3 3 3 3
          3 3 3 3 3 3
          3 3 3 3 3 3
          3 3 3 3 3 3
          3 3 3 3 3 3
          3 3 3 3 3 3
          3 3 3 3 3 3
          3 3 3 3 3 3
          3 3 3 3 3 3
          3 3 3 3 3 3
          3 3 3 3
        </DataArray>
      </Cells>
    </Piece>
  </UnstructuredGrid>
</VTKFile>
