<VTKFile type="UnstructuredGrid" version="1.0" byte_order="LittleEndian" header_type="UInt64">
  <UnstructuredGrid>
    <FieldData>
      <DataArray type="Float64" Name="ClusterAssignment" NumberOfTuples="1" format="ascii" RangeMin="1" RangeMax="1">
        1
      </DataArray>
    </FieldData>
    <Piece NumberOfPoints="163" NumberOfCells="0">
      <PointData>
        <DataArray type="Int32" Name="CriticalType" format="ascii" RangeMin="0" RangeMax="4">
          0 2 2 2 2 3
          3 2 2 3 3 4
          4 3 3 2 2 3
          3 2 2 3 3 2
          2 3 3 2 2 3
          3 2 2 3 3 2
          2 2 2 2 2 3
          3 2 2 3 3 2
          2 3 3 2 2 3
          3 3 3 3 3 2
          2 3 3 2 2 3
          3 2 2 3 3 2
          2 2 2 3 3 3
          3 2 2 3 3 2
          2 3 3 2 2 3
          3 2 2 3 3 2
          2 3 3 2 2 2
          2 3 3 3 3 2
          2 3 3 2 2 3
          3 2 2 2 2 2
          2 3 3 2 2 3
          3 2 2 3 3 3
          3 3 3 2 2 3
          3 2 2 3 3 2
          2 3 3 4 4 3
          3 2 2 3 3 2
          2 3 3 3 3 3
          3
        </DataArray>
        <DataArray type="Float64" Name="Persistence" format="ascii" RangeMin="1.4302034378051758" RangeMax="70.75894927978516">
          70.75894927978516 2.2887110710144043 2.2887110710144043 2.027067184448242 2.027067184448242 2.2887110710144043
          2.2887110710144043 2.4406495094299316 2.4406495094299316 2.027067184448242 2.027067184448242 2.3453011512756348
          2.3453011512756348 2.4406495094299316 2.4406495094299316 2.1479740142822266 2.1479740142822266 2.3453011512756348
          2.3453011512756348 1.8137197494506836 1.8137197494506836 2.1479740142822266 2.1479740142822266 2.43765926361084
          2.43765926361084 1.8137197494506836 1.8137197494506836 1.7492094039916992 1.7492094039916992 2.43765926361084
          2.43765926361084 5.165195465087891 5.165195465087891 1.7492094039916992 1.7492094039916992 2.267704963684082
          2.267704963684082 3.688836097717285 3.688836097717285 1.8238639831542969 1.8238639831542969 2.267704963684082
          2.267704963684082 2.913206100463867 2.913206100463867 3.688836097717285 3.688836097717285 1.5575332641601562
          1.5575332641601562 1.8238639831542969 1.8238639831542969 3.032637596130371 3.032637596130371 2.913206100463867
          2.913206100463867 5.165195465087891 5.165195465087891 1.5575332641601562 1.5575332641601562 3.5302505493164062
          3.5302505493164062 3.032637596130371 3.032637596130371 1.4302034378051758 1.4302034378051758 3.5302505493164062
          3.5302505493164062 7.038969039916992 7.038969039916992 1.4302034378051758 1.4302034378051758 1.5828475952148438
          1.5828475952148438 1.649984359741211 1.649984359741211 7.038969039916992 7.038969039916992 1.5828475952148438
          1.5828475952148438 3.225421905517578 3.225421905517578 1.649984359741211 1.649984359741211 1.5869064331054688
          1.5869064331054688 3.225421905517578 3.225421905517578 2.9138145446777344 2.9138145446777344 1.5869064331054688
          1.5869064331054688 1.7951545715332031 1.7951545715332031 2.9138145446777344 2.9138145446777344 12.24995231628418
          12.24995231628418 1.7951545715332031 1.7951545715332031 6.850986480712891 6.850986480712891 3.138256072998047
          3.138256072998047 12.24995231628418 12.24995231628418 6.850986480712891 6.850986480712891 3.288066864013672
          3.288066864013672 3.138256072998047 3.138256072998047 7.770660400390625 7.770660400390625 3.288066864013672
          3.288066864013672 3.3649635314941406 3.3649635314941406 2.2876434326171875 2.2876434326171875 1.475341796875
          1.475341796875 3.3649635314941406 3.3649635314941406 2.22137451171875 2.22137451171875 2.2876434326171875
          2.2876434326171875 1.7394752502441406 1.7394752502441406 1.475341796875 1.475341796875 7.770660400390625
          7.770660400390625 2.22137451171875 2.22137451171875 2.026824951171875 2.026824951171875 1.7394752502441406
          1.7394752502441406 1.7458648681640625 1.7458648681640625 2.026824951171875 2.026824951171875 2.8879737854003906
          2.8879737854003906 1.7458648681640625 1.7458648681640625 1.455352783203125 1.455352783203125 2.8879737854003906
          2.8879737854003906 3.5505142211914062 3.5505142211914062 1.455352783203125 1.455352783203125 2.74493408203125
          2.74493408203125 3.5505142211914062 3.5505142211914062 70.75894927978516 70.75894927978516 2.74493408203125
          2.74493408203125
        </DataArray>
        <DataArray type="Int32" Name="ClusterID" format="ascii" RangeMin="1" RangeMax="1">
          1 1 1 1 1 1
          1 1 1 1 1 1
          1 1 1 1 1 1
          1 1 1 1 1 1
          1 1 1 1 1 1
          1 1 1 1 1 1
          1 1 1 1 1 1
          1 1 1 1 1 1
          1 1 1 1 1 1
          1 1 1 1 1 1
          1 1 1 1 1 1
          1 1 1 1 1 1
          1 1 1 1 1 1
          1 1 1 1 1 1
          1 1 1 1 1 1
          1 1 1 1 1 1
          1 1 1 1 1 1
          1 1 1 1 1 1
          1 1 1 1 1 1
          1 1 1 1 1 1
          1 1 1 1 1 1
          1 1 1 1 1 1
          1 1 1 1 1 1
          1 1 1 1 1 1
          1 1 1 1 1 1
          1 1 1 1 1 1
          1 1 1 1 1 1
          1
        </DataArray>
        <DataArray type="Int32" Name="TreeID" format="ascii" RangeMin="1" RangeMax="1">
          1 1 1 1 1 1
          1 1 1 1 1 1
          1 1 1 1 1 1
          1 1 1 1 1 1
          1 1 1 1 1 1
          1 1 1 1 1 1
          1 1 1 1 1 1
          1 1 1 1 1 1
          1 1 1 1 1 1
          1 1 1 1 1 1
          1 1 1 1 1 1
          1 1 1 1 1 1
          1 1 1 1 1 1
          1 1 1 1 1 1
          1 1 1 1 1 1
          1 1 1 1 1 1
          1 1 1 1 1 1
          1 1 1 1 1 1
          1 1 1 1 1 1
          1 1 1 1 1 1
          1 1 1 1 1 1
          1 1 1 1 1 1
          1 1 1 1 1 1
          1 1 1 1 1 1
          1 1 1 1 1 1
          1 1 1 1 1 1
          1 1 1 1 1 1
          1
        </DataArray>
        <DataArray type="Int32" Name="TrueNodeId" format="ascii" RangeMin="0" RangeMax="81">
          81 71 71 69 69 70
          70 67 67 68 68 65
          65 66 66 63 63 64
          64 61 61 62 62 59
          59 60 60 57 57 58
          58 79 79 56 56 45
          45 55 55 43 43 44
          44 53 53 54 54 41
          41 42 42 51 51 52
          52 78 78 40 40 49
          49 50 50 47 47 48
          48 77 77 46 46 39
          39 37 37 76 76 38
          38 35 35 36 36 33
          33 34 34 31 31 32
          32 29 29 30 30 75
          75 28 28 23 23 27
          27 74 74 22 22 25
          25 26 26 73 73 24
          24 19 19 21 21 15
          15 18 18 17 17 20
          20 13 13 14 14 72
          72 16 16 11 11 12
          12 9 9 10 10 7
          7 8 8 5 5 6
          6 3 3 4 4 1
          1 2 2 80 80 0
          0
        </DataArray>
        <DataArray type="Int32" Name="VertexId" format="ascii" RangeMin="0" RangeMax="387464">
          0 31544 31544 23625 23625 15671
          15671 22881 22881 23876 23876 37136
          37136 23251 23251 382577 382577 37629
          37629 383211 383211 381955 381955 384335
          384335 383583 383583 383612 383612 368585
          368585 386084 386084 379975 379975 384964
          384964 290976 290976 384844 384844 385336
          385336 372870 372870 306476 306476 384962
          384962 384724 384724 354463 354463 387464
          387464 385221 385221 384588 384588 266993
          266993 338461 338461 384710 384710 269623
          269623 336085 336085 384460 384460 382836
          382836 253375 253375 367459 367459 382837
          382837 19951 19951 267626 267626 234726
          234726 18944 18944 222932 222932 218856
          218856 296847 296847 236586 236586 242186
          242186 296871 296871 278530 278530 289217
          289217 244139 244139 281044 281044 291473
          291473 242592 242592 195218 195218 291475
          291475 164094 164094 210841 210841 23216
          23216 195343 195343 226334 226334 210842
          210842 102099 102099 38840 38840 226335
          226335 242204 242204 117850 117850 101972
          101972 118225 118225 117849 117849 101959
          101959 118100 118100 25342 25342 117460
          117460 24963 24963 25217 25217 40963
          40963 56589 56589 40087 40087 56463
          56463
        </DataArray>
        <DataArray type="Int32" Name="isImportantPair" format="ascii" RangeMin="0" RangeMax="1">
          1 0 0 0 0 0
          0 0 0 0 0 0
          0 0 0 0 0 0
          0 0 0 0 0 0
          0 0 0 0 0 0
          0 0 0 0 0 0
          0 0 0 0 0 0
          0 0 0 0 0 0
          0 0 0 0 0 0
          0 0 0 0 0 0
          0 0 0 0 0 0
          0 0 0 0 0 0
          0 0 0 0 0 0
          0 0 0 0 0 0
          0 0 0 0 0 0
          0 0 0 0 0 1
          1 0 0 0 0 0
          0 1 1 0 0 0
          0 0 0 0 0 0
          0 0 0 0 0 0
          0 0 0 0 0 0
          0 0 0 0 0 0
          0 0 0 0 0 0
          0 0 0 0 0 0
          0 0 0 0 0 0
          0 0 0 0 0 0
          0 0 0 1 1 0
          0
        </DataArray>
        <DataArray type="Int32" Name="isMultiPersPairNode" format="ascii" RangeMin="0" RangeMax="0">
          0 0 0 0 0 0
          0 0 0 0 0 0
          0 0 0 0 0 0
          0 0 0 0 0 0
          0 0 0 0 0 0
          0 0 0 0 0 0
          0 0 0 0 0 0
          0 0 0 0 0 0
          0 0 0 0 0 0
          0 0 0 0 0 0
          0 0 0 0 0 0
          0 0 0 0 0 0
          0 0 0 0 0 0
          0 0 0 0 0 0
          0 0 0 0 0 0
          0 0 0 0 0 0
          0 0 0 0 0 0
          0 0 0 0 0 0
          0 0 0 0 0 0
          0 0 0 0 0 0
          0 0 0 0 0 0
          0 0 0 0 0 0
          0 0 0 0 0 0
          0 0 0 0 0 0
          0 0 0 0 0 0
          0 0 0 0 0 0
          0 0 0 0 0 0
          0
        </DataArray>
        <DataArray type="Int32" Name="NodeId" format="ascii" RangeMin="0" RangeMax="162">
          0 2 2 4 4 6
          6 8 8 10 10 12
          12 14 14 16 16 18
          18 20 20 22 22 24
          24 26 26 28 28 30
          30 32 32 34 34 36
          36 38 38 40 40 42
          42 44 44 46 46 48
          48 50 50 52 52 54
          54 56 56 58 58 60
          60 62 62 64 64 66
          66 68 68 70 70 72
          72 74 74 76 76 78
          78 80 80 82 82 84
          84 86 86 88 88 90
          90 92 92 94 94 96
          96 98 98 100 100 102
          102 104 104 106 106 108
          108 110 110 112 112 114
          114 116 116 118 118 120
          120 122 122 124 124 126
          126 128 128 130 130 132
          132 134 134 136 136 138
          138 140 140 142 142 144
          144 146 146 148 148 150
          150 152 152 154 154 156
          156 158 158 160 160 162
          162
        </DataArray>
        <DataArray type="Int32" Name="BranchNodeID" format="ascii" RangeMin="0" RangeMax="40">
          0 1 1 2 2 1
          1 3 3 2 2 4
          4 3 3 5 5 4
          4 6 6 5 5 7
          7 6 6 8 8 7
          7 9 9 8 8 10
          10 11 11 12 12 10
          10 13 13 11 11 14
          14 12 12 15 15 13
          13 9 9 14 14 16
          16 15 15 17 17 16
          16 18 18 17 17 19
          19 20 20 18 18 19
          19 21 21 20 20 22
          22 21 21 23 23 22
          22 24 24 23 23 25
          25 24 24 26 26 27
          27 25 25 26 26 28
          28 27 27 29 29 28
          28 30 30 31 31 32
          32 30 30 33 33 31
          31 34 34 32 32 29
          29 33 33 35 35 34
          34 36 36 35 35 37
          37 36 36 38 38 37
          37 39 39 38 38 40
          40 39 39 0 0 40
          40
        </DataArray>
        <DataArray type="Int32" Name="isDummyNode" format="ascii" RangeMin="0" RangeMax="1">
          0 0 1 0 1 0
          1 0 1 0 1 0
          1 0 1 0 1 0
          1 0 1 0 1 0
          1 0 1 0 1 0
          1 0 1 0 1 0
          1 0 1 0 1 0
          1 0 1 0 1 0
          1 0 1 0 1 0
          1 0 1 0 1 0
          1 0 1 0 1 0
          1 0 1 0 1 0
          1 0 1 0 1 0
          1 0 1 0 1 0
          1 0 1 0 1 0
          1 0 1 0 1 0
          1 0 1 0 1 0
          1 0 1 0 1 0
          1 0 1 0 1 0
          1 0 1 0 1 0
          1 0 1 0 1 0
          1 0 1 0 1 0
          1 0 1 0 1 0
          1 0 1 0 1 0
          1 0 1 0 1 0
          1 0 1 0 1 0
          1 0 1 0 1 0
          1
        </DataArray>
        <DataArray type="Float32" Name="Scalar" format="ascii" RangeMin="0" RangeMax="70.75894927978516">
          0 4.1493683 4.1493683 5.805127 5.805127 6.4380794
          6.4380794 6.243899 6.243899 7.8321943 7.8321943 6.6584716
          6.6584716 8.684548 8.684548 8.280106 8.280106 9.003773
          9.003773 9.244814 9.244814 10.42808 10.42808 9.692116
          9.692116 11.058534 11.058534 10.010857 10.010857 12.129775
          12.129775 10.344954 10.344954 11.760066 11.760066 12.26299
          12.26299 10.431184 10.431184 12.452481 12.452481 14.530695
          14.530695 10.645031 10.645031 14.12002 14.12002 12.593695
          12.593695 14.276345 14.276345 10.694428 10.694428 13.558237
          13.558237 15.510149 15.510149 14.151228 14.151228 10.921392
          10.921392 13.727066 13.727066 11.236405 11.236405 14.451643
          14.451643 12.076822 12.076822 12.666609 12.666609 12.823345
          12.823345 14.197397 14.197397 19.115791 19.115791 14.406193
          14.406193 14.572613 14.572613 15.847382 15.847382 16.365318
          16.365318 17.798035 17.798035 16.634865 16.634865 17.952225
          17.952225 18.579382 18.579382 19.54868 19.54868 22.84891
          22.84891 20.374537 20.374537 25.744606 25.744606 25.37686
          25.37686 35.09886 35.09886 32.595592 32.595592 25.72924
          25.72924 28.515116 28.515116 34.345997 34.345997 29.017307
          29.017307 36.665245 36.665245 35.872723 35.872723 45.27766
          45.27766 40.03021 40.03021 39.465324 39.465324 38.160366
          38.160366 47.300358 47.300358 46.753002 46.753002 42.116657
          42.116657 41.6867 41.6867 47.648525 47.648525 49.039833
          49.039833 49.75232 49.75232 49.67535 49.67535 53.493454
          53.493454 51.498184 51.498184 64.90024 64.90024 56.381428
          56.381428 65.716995 65.716995 66.35559 66.35559 65.93956
          65.93956 69.26751 69.26751 70.75895 70.75895 68.684494
          68.684494
        </DataArray>
        <DataArray type="Float32" Name="PercentMatchNode" format="ascii" RangeMin="33.33333206176758" RangeMax="33.33333206176758">
          33.333332 33.333332 33.333332 33.333332 33.333332 33.333332
          33.333332 33.333332 33.333332 33.333332 33.333332 33.333332
          33.333332 33.333332 33.333332 33.333332 33.333332 33.333332
          33.333332 33.333332 33.333332 33.333332 33.333332 33.333332
          33.333332 33.333332 33.333332 33.333332 33.333332 33.333332
          33.333332 33.333332 33.333332 33.333332 33.333332 33.333332
          33.333332 33.333332 33.333332 33.333332 33.333332 33.333332
          33.333332 33.333332 33.333332 33.333332 33.333332 33.333332
          33.333332 33.333332 33.333332 33.333332 33.333332 33.333332
          33.333332 33.333332 33.333332 33.333332 33.333332 33.333332
          33.333332 33.333332 33.333332 33.333332 33.333332 33.333332
          33.333332 33.333332 33.333332 33.333332 33.333332 33.333332
          33.333332 33.333332 33.333332 33.333332 33.333332 33.333332
          33.333332 33.333332 33.333332 33.333332 33.333332 33.333332
          33.333332 33.333332 33.333332 33.333332 33.333332 33.333332
          33.333332 33.333332 33.333332 33.333332 33.333332 33.333332
          33.333332 33.333332 33.333332 33.333332 33.333332 33.333332
          33.333332 33.333332 33.333332 33.333332 33.333332 33.333332
          33.333332 33.333332 33.333332 33.333332 33.333332 33.333332
          33.333332 33.333332 33.333332 33.333332 33.333332 33.333332
          33.333332 33.333332 33.333332 33.333332 33.333332 33.333332
          33.333332 33.333332 33.333332 33.333332 33.333332 33.333332
          33.333332 33.333332 33.333332 33.333332 33.333332 33.333332
          33.333332 33.333332 33.333332 33.333332 33.333332 33.333332
          33.333332 33.333332 33.333332 33.333332 33.333332 33.333332
          33.333332 33.333332 33.333332 33.333332 33.333332 33.333332
          33.333332 33.333332 33.333332 33.333332 33.333332 33.333332
          33.333332
        </DataArray>
        <DataArray type="Float64" Name="Birth" format="ascii" RangeMin="0" RangeMax="65.93955993652344">
          0 4.1493682861328125 4.1493682861328125 5.805127143859863 5.805127143859863 4.1493682861328125
          4.1493682861328125 6.243898868560791 6.243898868560791 5.805127143859863 5.805127143859863 6.658471584320068
          6.658471584320068 6.243898868560791 6.243898868560791 8.280105590820312 8.280105590820312 6.658471584320068
          6.658471584320068 9.244813919067383 9.244813919067383 8.280105590820312 8.280105590820312 9.692115783691406
          9.692115783691406 9.244813919067383 9.244813919067383 10.010856628417969 10.010856628417969 9.692115783691406
          9.692115783691406 10.344953536987305 10.344953536987305 10.010856628417969 10.010856628417969 12.26298999786377
          12.26298999786377 10.431183815002441 10.431183815002441 12.452481269836426 12.452481269836426 12.26298999786377
          12.26298999786377 10.645030975341797 10.645030975341797 10.431183815002441 10.431183815002441 12.593694686889648
          12.593694686889648 12.452481269836426 12.452481269836426 10.694428443908691 10.694428443908691 10.645030975341797
          10.645030975341797 10.344953536987305 10.344953536987305 12.593694686889648 12.593694686889648 10.921392440795898
          10.921392440795898 10.694428443908691 10.694428443908691 11.236405372619629 11.236405372619629 10.921392440795898
          10.921392440795898 12.076822280883789 12.076822280883789 11.236405372619629 11.236405372619629 12.823345184326172
          12.823345184326172 14.197397232055664 14.197397232055664 12.076822280883789 12.076822280883789 12.823345184326172
          12.823345184326172 14.572612762451172 14.572612762451172 14.197397232055664 14.197397232055664 16.365318298339844
          16.365318298339844 14.572612762451172 14.572612762451172 16.634864807128906 16.634864807128906 16.365318298339844
          16.365318298339844 18.579381942749023 18.579381942749023 16.634864807128906 16.634864807128906 22.848909378051758
          22.848909378051758 18.579381942749023 18.579381942749023 25.744606018066406 25.744606018066406 25.376859664916992
          25.376859664916992 22.848909378051758 22.848909378051758 25.744606018066406 25.744606018066406 25.72924041748047
          25.72924041748047 25.376859664916992 25.376859664916992 34.34599685668945 34.34599685668945 25.72924041748047
          25.72924041748047 36.665245056152344 36.665245056152344 35.87272262573242 35.87272262573242 45.27766036987305
          45.27766036987305 36.665245056152344 36.665245056152344 39.46532440185547 39.46532440185547 35.87272262573242
          35.87272262573242 47.300357818603516 47.300357818603516 45.27766036987305 45.27766036987305 34.34599685668945
          34.34599685668945 39.46532440185547 39.46532440185547 47.64852523803711 47.64852523803711 47.300357818603516
          47.300357818603516 49.7523193359375 49.7523193359375 47.64852523803711 47.64852523803711 53.49345397949219
          53.49345397949219 49.7523193359375 49.7523193359375 64.90023803710938 64.90023803710938 53.49345397949219
          53.49345397949219 65.71699523925781 65.71699523925781 64.90023803710938 64.90023803710938 65.93955993652344
          65.93955993652344 65.71699523925781 65.71699523925781 0 0 65.93955993652344
          65.93955993652344
        </DataArray>
      </PointData>
      <CellData>
      </CellData>
      <Points>
        <DataArray type="Float32" Name="Points" NumberOfComponents="3" format="ascii" RangeMin="394.64687513544914" RangeMax="414.0870088677182">
          397.5968 0 0 394.62506 4.1493683 0
          397.5968 4.1493683 0 394.66043 5.805127 0
          397.5968 5.805127 0 394.62506 6.4380794 0
          394.62506 6.4380794 0 394.69583 6.243899 0
          397.5968 6.243899 0 394.66043 7.832195 0
          394.66043 7.832195 0 394.7312 6.658472 0
          397.5968 6.658472 0 394.69583 8.684548 0
          394.69583 8.684548 0 394.76657 8.280106 0
          397.5968 8.280106 0 394.7312 9.003773 0
          394.7312 9.003773 0 394.80197 9.244814 0
          397.5968 9.244814 0 394.76657 10.42808 0
          394.76657 10.42808 0 394.83734 9.692116 0
          397.5968 9.692116 0 394.80197 11.058534 0
          394.80197 11.058534 0 394.8727 10.010857 0
          397.5968 10.010857 0 394.83734 12.129775 0
          394.83734 12.129775 0 395.01422 10.344954 0
          397.5968 10.344954 0 394.8727 11.760067 0
          394.8727 11.760067 0 394.9081 12.26299 0
          395.01422 12.26299 0 395.04962 10.431184 0
          397.5968 10.431184 0 394.94348 12.452481 0
          395.01422 12.452481 0 394.9081 14.530695 0
          394.9081 14.530695 0 395.085 10.645031 0
          397.5968 10.645031 0 395.04962 14.12002 0
          395.04962 14.12002 0 394.97885 12.593695 0
          395.01422 12.593695 0 394.94348 14.276345 0
          394.94348 14.276345 0 395.12036 10.694428 0
          397.5968 10.694428 0 395.085 13.558237 0
          395.085 13.558237 0 395.01422 15.510149 0
          395.01422 15.510149 0 394.97885 14.151228 0
          394.97885 14.151228 0 395.15576 10.921392 0
          397.5968 10.921392 0 395.12036 13.727066 0
          395.12036 13.727066 0 395.19113 11.236405 0
          397.5968 11.236405 0 395.15576 14.451643 0
          395.15576 14.451643 0 395.2619 12.076822 0
          397.5968 12.076822 0 395.19113 12.66661 0
          395.19113 12.66661 0 395.2265 12.823345 0
          395.2619 12.823345 0 395.29727 14.197398 0
          397.5968 14.197398 0 395.2619 19.115791 0
          395.2619 19.115791 0 395.2265 14.406193 0
          395.2265 14.406193 0 395.33264 14.572613 0
          397.5968 14.572613 0 395.29727 15.847382 0
          395.29727 15.847382 0 395.36804 16.365318 0
          397.5968 16.365318 0 395.33264 17.798035 0
          395.33264 17.798035 0 395.4034 16.634865 0
          397.5968 16.634865 0 395.36804 17.952227 0
          395.36804 17.952227 0 395.43878 18.579382 0
          397.5968 18.579382 0 395.4034 19.54868 0
          395.4034 19.54868 0 412.5968 22.84891 0
          397.5968 22.84891 0 395.43878 20.374537 0
          395.43878 20.374537 0 410.31674 25.744606 0
          412.5968 25.744606 0 395.4034 25.37686 0
          397.5968 25.37686 0 412.5968 35.09886 0
          412.5968 35.09886 0 410.31674 32.595592 0
          410.31674 32.595592 0 395.43878 25.729242 0
          397.5968 25.729242 0 395.4034 28.515116 0
          395.4034 28.515116 0 395.4034 34.345997 0
          397.5968 34.345997 0 395.43878 29.017307 0
          395.43878 29.017307 0 395.43878 36.665245 0
          397.5968 36.665245 0 395.36804 35.872723 0
          395.4034 35.872723 0 395.43878 45.277657 0
          397.5968 45.277657 0 395.43878 40.03021 0
          395.43878 40.03021 0 395.36804 39.46533 0
          395.4034 39.46533 0 395.36804 38.160366 0
          395.36804 38.160366 0 395.4034 47.300358 0
          397.5968 47.300358 0 395.43878 46.753002 0
          395.43878 46.753002 0 395.4034 42.116657 0
          395.4034 42.116657 0 395.36804 41.6867 0
          395.36804 41.6867 0 395.43878 47.648525 0
          397.5968 47.648525 0 395.4034 49.039833 0
          395.4034 49.039833 0 395.43878 49.75232 0
          397.5968 49.75232 0 395.43878 49.675346 0
          395.43878 49.675346 0 395.43878 53.493454 0
          397.5968 53.493454 0 395.43878 51.498184 0
          395.43878 51.498184 0 395.36804 64.90024 0
          397.5968 64.90024 0 395.43878 56.381428 0
          395.43878 56.381428 0 395.4034 65.716995 0
          397.5968 65.716995 0 395.36804 66.35559 0
          395.36804 66.35559 0 395.43878 65.93956 0
          397.5968 65.93956 0 395.4034 69.26751 0
          395.4034 69.26751 0 397.5968 70.75895 0
          397.5968 70.75895 0 395.43878 68.684494 0
          395.43878 68.684494 0
          <InformationKey name="L2_NORM_RANGE" location="vtkDataArray" length="2">
            <Value index="0">
              394.64687514
            </Value>
            <Value index="1">
              414.08700887
            </Value>
          </InformationKey>
          <InformationKey name="L2_NORM_FINITE_RANGE" location="vtkDataArray" length="2">
            <Value index="0">
              394.64687514
            </Value>
            <Value index="1">
              414.08700887
            </Value>
          </InformationKey>
        </DataArray>
      </Points>
      <Cells>
        <DataArray type="Int64" Name="connectivity" format="ascii" RangeMin="1e+299" RangeMax="-1e+299">
        </DataArray>
        <DataArray type="Int64" Name="offsets" format="ascii" RangeMin="1e+299" RangeMax="-1e+299">
        </DataArray>
        <DataArray type="UInt8" Name="types" format="ascii" RangeMin="1e+299" RangeMax="-1e+299">
        </DataArray>
      </Cells>
    </Piece>
  </UnstructuredGrid>
</VTKFile>
