<VTKFile type="UnstructuredGrid" version="1.0" byte_order="LittleEndian" header_type="UInt64">
  <UnstructuredGrid>
    <Piece NumberOfPoints="87" NumberOfCells="64">
      <PointData>
        <DataArray type="Float32" Name="Scalar" format="ascii" RangeMin="0" RangeMax="68.24547576904297">
          0 4.71622 4.71622 4.81491 4.81491 6.346629
          6.346629 6.402103 6.402103 6.8415527 6.8415527 6.975126
          6.975126 8.66318 8.66318 7.447213 7.447213 9.956791
          9.956791 7.4504876 7.4504876 9.04947 9.04947 7.574028
          7.574028 9.681557 9.681557 9.025247 9.025247 9.621111
          9.621111 9.321024 9.321024 10.701988 10.701988 11.006116
          11.006116 9.847541 9.847541 11.449314 11.449314 13.370397
          13.370397 11.270831 11.270831 11.294858 11.294858 13.60547
          13.60547 13.019063 13.019063 15.0797615 15.0797615 14.108878
          14.108878 17.64908 17.64908 17.450363 17.450363 22.126005
          22.126005 19.352354 19.352354 27.765509 27.765509 30.192842
          30.192842 35.78696 35.78696 32.41364 32.41364 30.493153
          30.493153 31.824894 31.824894 46.190216 46.190216 32.2407
          32.2407 60.47409 60.47409 51.50507 51.50507 68.245476
          68.245476 62.73317 62.73317
        </DataArray>
      </PointData>
      <CellData>
        <DataArray type="Float64" Name="Persistence" format="ascii" RangeMin="1.447317123413086" RangeMax="68.24547576904297">
          1.6304092407226562 2.0266427993774414 1.6304092407226562 1.6304092407226562 2.261077404022217 2.0266427993774414
          2.0266427993774414 2.9816651344299316 2.261077404022217 2.261077404022217 1.6022567749023438 2.9816651344299316
          2.9816651344299316 2.2310690879821777 1.6022567749023438 1.6022567749023438 2.0470829010009766 2.2310690879821777
          2.2310690879821777 1.676741600036621 2.0470829010009766 2.0470829010009766 4.284445762634277 1.676741600036621
          1.676741600036621 2.3642807006835938 2.3642807006835938 1.447317123413086 1.569748878479004 2.3642807006835938
          2.3642807006835938 2.8380470275878906 1.447317123413086 1.447317123413086 4.284445762634277 1.569748878479004
          1.569748878479004 2.3706016540527344 2.8380470275878906 2.8380470275878906 1.7032737731933594 2.3706016540527344
          2.3706016540527344 13.660955429077148 1.7032737731933594 1.7032737731933594 4.648130416870117 4.648130416870117
          1.6320514678955078 13.660955429077148 4.648130416870117 4.648130416870117 1.7475471496582031 1.6320514678955078
          1.6320514678955078 5.314853668212891 1.7475471496582031 1.7475471496582031 2.2590789794921875 5.314853668212891
          5.314853668212891 68.24547576904297 2.2590789794921875 2.2590789794921875
        </DataArray>
        <DataArray type="Int32" Name="ClusterID" format="ascii" RangeMin="0" RangeMax="0">
          0 0 0 0 0 0
          0 0 0 0 0 0
          0 0 0 0 0 0
          0 0 0 0 0 0
          0 0 0 0 0 0
          0 0 0 0 0 0
          0 0 0 0 0 0
          0 0 0 0 0 0
          0 0 0 0 0 0
          0 0 0 0 0 0
          0 0 0 0
        </DataArray>
        <DataArray type="Int32" Name="TreeID" format="ascii" RangeMin="0" RangeMax="0">
          0 0 0 0 0 0
          0 0 0 0 0 0
          0 0 0 0 0 0
          0 0 0 0 0 0
          0 0 0 0 0 0
          0 0 0 0 0 0
          0 0 0 0 0 0
          0 0 0 0 0 0
          0 0 0 0 0 0
          0 0 0 0 0 0
          0 0 0 0
        </DataArray>
        <DataArray type="Int32" Name="isImportantPair" format="ascii" RangeMin="0" RangeMax="1">
          1 1 0 0 1 0
          0 1 0 0 1 0
          0 1 0 0 1 0
          0 1 0 0 1 0
          0 0 0 1 0 0
          0 1 0 0 0 0
          0 1 0 0 1 0
          0 1 0 0 1 1
          1 1 0 0 1 0
          0 1 0 0 1 0
          0 1 0 0
        </DataArray>
        <DataArray type="Int32" Name="isMultiPersPairArc" format="ascii" RangeMin="0" RangeMax="0">
          0 0 0 0 0 0
          0 0 0 0 0 0
          0 0 0 0 0 0
          0 0 0 0 0 0
          0 0 0 0 0 0
          0 0 0 0 0 0
          0 0 0 0 0 0
          0 0 0 0 0 0
          0 0 0 0 0 0
          0 0 0 0 0 0
          0 0 0 0
        </DataArray>
        <DataArray type="Int32" Name="isDummyArc" format="ascii" RangeMin="0" RangeMax="1">
          0 0 1 0 0 1
          0 0 1 0 0 1
          0 0 1 0 0 1
          0 0 1 0 0 1
          0 1 0 0 0 1
          0 0 1 0 0 1
          0 0 1 0 0 1
          0 0 1 0 1 0
          0 0 1 0 0 1
          0 0 1 0 0 1
          0 0 1 0
        </DataArray>
        <DataArray type="Int32" Name="BranchID" format="ascii" RangeMin="0" RangeMax="21">
          0 0 1 1 0 2
          2 0 3 3 0 4
          4 0 5 5 0 6
          6 0 7 7 0 8
          8 9 9 0 9 10
          10 0 11 11 9 12
          12 0 13 13 0 14
          14 0 15 15 16 16
          0 16 17 17 0 18
          18 0 19 19 0 20
          20 0 21 21
        </DataArray>
        <DataArray type="Int32" Name="upNodeId" format="ascii" RangeMin="0" RangeMax="80">
          0 2 2 2 4 4
          4 8 8 8 12 12
          12 16 16 16 20 20
          20 24 24 24 28 28
          28 32 32 32 36 36
          36 38 38 38 40 40
          40 44 44 44 52 52
          52 56 56 56 60 60
          60 64 64 64 66 66
          66 72 72 72 76 76
          76 80 80 80
        </DataArray>
        <DataArray type="Int32" Name="downNodeId" format="ascii" RangeMin="2" RangeMax="86">
          2 4 6 6 8 10
          10 12 14 14 16 18
          18 20 22 22 24 26
          26 28 30 30 32 34
          34 36 36 38 40 42
          42 44 46 46 48 50
          50 52 54 54 56 58
          58 60 62 62 64 64
          66 68 70 70 72 74
          74 76 78 78 80 82
          82 84 86 86
        </DataArray>
        <DataArray type="Float32" Name="PercentMatchArc" format="ascii" RangeMin="33.33333206176758" RangeMax="33.33333206176758">
          33.333332 33.333332 33.333332 33.333332 33.333332 33.333332
          33.333332 33.333332 33.333332 33.333332 33.333332 33.333332
          33.333332 33.333332 33.333332 33.333332 33.333332 33.333332
          33.333332 33.333332 33.333332 33.333332 33.333332 33.333332
          33.333332 33.333332 33.333332 33.333332 33.333332 33.333332
          33.333332 33.333332 33.333332 33.333332 33.333332 33.333332
          33.333332 33.333332 33.333332 33.333332 33.333332 33.333332
          33.333332 33.333332 33.333332 33.333332 33.333332 33.333332
          33.333332 33.333332 33.333332 33.333332 33.333332 33.333332
          33.333332 33.333332 33.333332 33.333332 33.333332 33.333332
          33.333332 33.333332 33.333332 33.333332
        </DataArray>
        <DataArray type="Float64" Name="Birth" format="ascii" RangeMin="0" RangeMax="60.474090576171875">
          4.716219902038574 4.814909934997559 4.716219902038574 4.716219902038574 6.402102947235107 4.814909934997559
          4.814909934997559 6.975125789642334 6.402102947235107 6.402102947235107 7.447213172912598 6.975125789642334
          6.975125789642334 7.4504876136779785 7.447213172912598 7.447213172912598 7.574028015136719 7.4504876136779785
          7.4504876136779785 9.025246620178223 7.574028015136719 7.574028015136719 9.321023941040039 9.025246620178223
          9.025246620178223 11.006115913391113 11.006115913391113 9.847540855407715 11.44931411743164 11.006115913391113
          11.006115913391113 11.270831108093262 9.847540855407715 9.847540855407715 9.321023941040039 11.44931411743164
          11.44931411743164 15.079761505126953 11.270831108093262 11.270831108093262 17.649080276489258 15.079761505126953
          15.079761505126953 22.126005172729492 17.649080276489258 17.649080276489258 27.7655086517334 27.7655086517334
          30.192842483520508 22.126005172729492 27.7655086517334 27.7655086517334 30.493152618408203 30.192842483520508
          30.192842483520508 46.190216064453125 30.493152618408203 30.493152618408203 60.474090576171875 46.190216064453125
          46.190216064453125 0 60.474090576171875 60.474090576171875
        </DataArray>
      </CellData>
      <Points>
        <DataArray type="Float32" Name="Points" NumberOfComponents="3" format="ascii" RangeMin="0" RangeMax="68.24547576904297">
          0 0 0 -2.6270561 4.71622 0
          0 4.71622 0 -2.5929334 4.81491 0
          0 4.81491 0 -2.6270561 6.346629 0
          -2.6270561 6.346629 0 -2.5588107 6.402103 0
          0 6.402103 0 -2.5929334 6.8415527 0
          -2.5929334 6.8415527 0 -2.524688 6.975126 0
          0 6.975126 0 -2.5588107 8.66318 0
          -2.5588107 8.66318 0 -2.4905653 7.447213 0
          0 7.447213 0 -2.524688 9.956791 0
          -2.524688 9.956791 0 -2.4564426 7.4504876 0
          0 7.4504876 0 -2.4905653 9.04947 0
          -2.4905653 9.04947 0 -2.42232 7.574028 0
          0 7.574028 0 -2.4564426 9.681557 0
          -2.4564426 9.681557 0 -2.388197 9.025247 0
          0 9.025247 0 -2.42232 9.621111 0
          -2.42232 9.621111 0 -2.2858288 9.321024 0
          0 9.321024 0 -2.388197 10.701988 0
          -2.388197 10.701988 0 -2.3540742 11.006116 0
          -2.2858288 11.006116 0 -2.2517061 9.847541 0
          0 9.847541 0 -2.3199515 11.449314 0
          -2.2858288 11.449314 0 -2.3540742 13.370397 0
          -2.3540742 13.370397 0 -2.2175834 11.270831 0
          0 11.270831 0 -2.2517061 11.294858 0
          -2.2517061 11.294858 0 -2.2858288 13.60547 0
          -2.2858288 13.60547 0 -2.3199515 13.019063 0
          -2.3199515 13.019063 0 -2.2175834 15.0797615 0
          0 15.0797615 0 -2.2175834 14.108878 0
          -2.2175834 14.108878 0 -2.2175834 17.64908 0
          0 17.64908 0 -2.2175834 17.450363 0
          -2.2175834 17.450363 0 15 22.126005 0
          0 22.126005 0 -2.2175834 19.352354 0
          -2.2175834 19.352354 0 12.720996 27.765509 0
          15 27.765509 0 -2.2517061 30.192842 0
          0 30.192842 0 15 35.78696 0
          15 35.78696 0 12.720996 32.41364 0
          12.720996 32.41364 0 -2.2175834 30.493153 0
          0 30.493153 0 -2.2517061 31.824894 0
          -2.2517061 31.824894 0 -2.2175834 46.190216 0
          0 46.190216 0 -2.2175834 32.2407 0
          -2.2175834 32.2407 0 -2.2175834 60.47409 0
          0 60.47409 0 -2.2175834 51.50507 0
          -2.2175834 51.50507 0 0 68.245476 0
          0 68.245476 0 -2.2175834 62.73317 0
          -2.2175834 62.73317 0
          <InformationKey name="L2_NORM_RANGE" location="vtkDataArray" length="2">
            <Value index="0">
              0
            </Value>
            <Value index="1">
              68.245475769
            </Value>
          </InformationKey>
          <InformationKey name="L2_NORM_FINITE_RANGE" location="vtkDataArray" length="2">
            <Value index="0">
              0
            </Value>
            <Value index="1">
              68.245475769
            </Value>
          </InformationKey>
        </DataArray>
      </Points>
      <Cells>
        <DataArray type="Int64" Name="connectivity" format="ascii" RangeMin="0" RangeMax="86">
          2 0 4 2 1 2
          6 1 8 4 3 4
          10 3 12 8 7 8
          14 7 16 12 11 12
          18 11 20 16 15 16
          22 15 24 20 19 20
          26 19 28 24 23 24
          30 23 32 28 27 28
          34 27 31 32 36 31
          38 32 40 36 35 36
          42 35 44 38 37 38
          46 37 48 40 39 40
          50 39 52 44 43 44
          54 43 56 52 51 52
          58 51 60 56 55 56
          62 55 59 60 64 59
          66 60 68 64 63 64
          70 63 72 66 65 66
          74 65 76 72 71 72
          78 71 80 76 75 76
          82 75 84 80 79 80
          86 79
        </DataArray>
        <DataArray type="Int64" Name="offsets" format="ascii" RangeMin="2" RangeMax="128">
          2 4 6 8 10 12
          14 16 18 20 22 24
          26 28 30 32 34 36
          38 40 42 44 46 48
          50 52 54 56 58 60
          62 64 66 68 70 72
          74 76 78 80 82 84
          86 88 90 92 94 96
          98 100 102 104 106 108
          110 112 114 116 118 120
          122 124 126 128
        </DataArray>
        <DataArray type="UInt8" Name="types" format="ascii" RangeMin="3" RangeMax="3">
          3 3 3 3 3 3
          3 3 3 3 3 3
          3 3 3 3 3 3
          3 3 3 3 3 3
          3 3 3 3 3 3
          3 3 3 3 3 3
          3 3 3 3 3 3
          3 3 3 3 3 3
          3 3 3 3 3 3
          3 3 3 3 3 3
          3 3 3 3
        </DataArray>
      </Cells>
    </Piece>
  </UnstructuredGrid>
</VTKFile>
