<VTKFile type="UnstructuredGrid" version="1.0" byte_order="LittleEndian" header_type="UInt64">
  <UnstructuredGrid>
    <FieldData>
      <DataArray type="Float64" Name="Distance" NumberOfTuples="1" format="ascii" RangeMin="0" RangeMax="0">
        0
      </DataArray>
    </FieldData>
    <Piece NumberOfPoints="88" NumberOfCells="44">
      <PointData>
      </PointData>
      <CellData>
        <DataArray type="Int32" Name="MatchingType" format="ascii" RangeMin="1" RangeMax="3">
          2 3 2 1 2 1
          2 1 2 1 2 1
          2 1 2 1 2 1
          2 1 2 1 2 1
          2 1 2 1 2 1
          2 1 2 1 2 1
          2 1 2 1 2 1
          2 1
        </DataArray>
        <DataArray type="Float64" Name="MeanMatchedPersistence" format="ascii" RangeMin="1.447317123413086" RangeMax="68.24547576904297">
          68.24547576904297 68.24547576904297 2.261077404022217 2.261077404022217 2.2590789794921875 2.2590789794921875
          5.314853668212891 5.314853668212891 1.6320514678955078 1.6320514678955078 13.660955429077148 13.660955429077148
          1.7032737731933594 1.7032737731933594 2.3706016540527344 2.3706016540527344 2.8380470275878906 2.8380470275878906
          1.676741600036621 1.676741600036621 1.6304092407226562 1.6304092407226562 2.0470829010009766 2.0470829010009766
          2.2310690879821777 2.2310690879821777 1.6022567749023438 1.6022567749023438 2.9816651344299316 2.9816651344299316
          1.7475471496582031 1.7475471496582031 1.447317123413086 1.447317123413086 4.284445762634277 4.284445762634277
          2.0266427993774414 2.0266427993774414 4.648130416870117 4.648130416870117 2.3642807006835938 2.3642807006835938
          1.569748878479004 1.569748878479004
        </DataArray>
        <DataArray type="Int32" Name="MatchingID" format="ascii" RangeMin="0" RangeMax="43">
          0 1 2 3 4 5
          6 7 8 9 10 11
          12 13 14 15 16 17
          18 19 20 21 22 23
          24 25 26 27 28 29
          30 31 32 33 34 35
          36 37 38 39 40 41
          42 43
        </DataArray>
        <DataArray type="Float64" Name="Cost" format="ascii" RangeMin="0" RangeMax="0">
          0 0 0 0 0 0
          0 0 0 0 0 0
          0 0 0 0 0 0
          0 0 0 0 0 0
          0 0 0 0 0 0
          0 0 0 0 0 0
          0 0 0 0 0 0
          0 0
        </DataArray>
        <DataArray type="Int32" Name="tree1NodeId" format="ascii" RangeMin="0" RangeMax="85">
          83 0 13 7 85 79
          81 75 73 65 67 59
          61 55 57 51 53 43
          33 27 5 1 29 23
          25 19 21 15 17 11
          77 71 45 37 47 31
          9 3 69 63 41 35
          49 39
        </DataArray>
        <DataArray type="Int32" Name="tree2NodeId" format="ascii" RangeMin="0" RangeMax="85">
          83 0 13 7 85 79
          81 75 73 65 67 59
          61 55 57 51 53 43
          33 27 5 1 29 23
          25 19 21 15 17 11
          77 71 45 37 47 31
          9 3 69 63 41 35
          49 39
        </DataArray>
        <DataArray type="Float32" Name="MatchingPercentMatch" format="ascii" RangeMin="33.33333206176758" RangeMax="33.33333206176758">
          33.333332 33.333332 33.333332 33.333332 33.333332 33.333332
          33.333332 33.333332 33.333332 33.333332 33.333332 33.333332
          33.333332 33.333332 33.333332 33.333332 33.333332 33.333332
          33.333332 33.333332 33.333332 33.333332 33.333332 33.333332
          33.333332 33.333332 33.333332 33.333332 33.333332 33.333332
          33.333332 33.333332 33.333332 33.333332 33.333332 33.333332
          33.333332 33.333332 33.333332 33.333332 33.333332 33.333332
          33.333332 33.333332
        </DataArray>
      </CellData>
      <Points>
        <DataArray type="Float32" Name="Points" NumberOfComponents="3" format="ascii" RangeMin="0" RangeMax="120.5721610113446">
          0 68.245476 0 -99.3992 68.245476 0
          0 0 0 -99.3992 0 0
          -2.5588107 8.66318 0 -101.95801 8.66318 0
          -2.5588107 6.402103 0 -101.95801 6.402103 0
          -2.2175834 62.73317 0 -101.61678 62.73317 0
          -2.2175834 60.47409 0 -101.61678 60.47409 0
          -2.2175834 51.50507 0 -101.61678 51.50507 0
          -2.2175834 46.190216 0 -101.61678 46.190216 0
          -2.2517061 31.824894 0 -101.65091 31.824894 0
          -2.2517061 30.192842 0 -101.65091 30.192842 0
          15 35.78696 0 -84.3992 35.78696 0
          15 22.126005 0 -84.3992 22.126005 0
          -2.2175834 19.352354 0 -101.61678 19.352354 0
          -2.2175834 17.64908 0 -101.61678 17.64908 0
          -2.2175834 17.450363 0 -101.61678 17.450363 0
          -2.2175834 15.0797615 0 -101.61678 15.0797615 0
          -2.2175834 14.108878 0 -101.61678 14.108878 0
          -2.2175834 11.270831 0 -101.61678 11.270831 0
          -2.388197 10.701988 0 -101.7874 10.701988 0
          -2.388197 9.025247 0 -101.7874 9.025247 0
          -2.6270561 6.346629 0 -102.02626 6.346629 0
          -2.6270561 4.71622 0 -102.02626 4.71622 0
          -2.42232 9.621111 0 -101.82152 9.621111 0
          -2.42232 7.574028 0 -101.82152 7.574028 0
          -2.4564426 9.681557 0 -101.855644 9.681557 0
          -2.4564426 7.4504876 0 -101.855644 7.4504876 0
          -2.4905653 9.04947 0 -101.88976 9.04947 0
          -2.4905653 7.447213 0 -101.88976 7.447213 0
          -2.524688 9.956791 0 -101.92389 9.956791 0
          -2.524688 6.975126 0 -101.92389 6.975126 0
          -2.2175834 32.2407 0 -101.61678 32.2407 0
          -2.2175834 30.493153 0 -101.61678 30.493153 0
          -2.2517061 11.294858 0 -101.65091 11.294858 0
          -2.2517061 9.847541 0 -101.65091 9.847541 0
          -2.2858288 13.60547 0 -101.68503 13.60547 0
          -2.2858288 9.321024 0 -101.68503 9.321024 0
          -2.5929334 6.8415527 0 -101.992134 6.8415527 0
          -2.5929334 4.81491 0 -101.992134 4.81491 0
          12.720996 32.41364 0 -86.67821 32.41364 0
          12.720996 27.765509 0 -86.67821 27.765509 0
          -2.3540742 13.370397 0 -101.75327 13.370397 0
          -2.3540742 11.006116 0 -101.75327 11.006116 0
          -2.3199515 13.019063 0 -101.719154 13.019063 0
          -2.3199515 11.449314 0 -101.719154 11.449314 0
          <InformationKey name="L2_NORM_RANGE" location="vtkDataArray" length="2">
            <Value index="0">
              0
            </Value>
            <Value index="1">
              120.57216101
            </Value>
          </InformationKey>
          <InformationKey name="L2_NORM_FINITE_RANGE" location="vtkDataArray" length="2">
            <Value index="0">
              0
            </Value>
            <Value index="1">
              120.57216101
            </Value>
          </InformationKey>
        </DataArray>
      </Points>
      <Cells>
        <DataArray type="Int64" Name="connectivity" format="ascii" RangeMin="0" RangeMax="87">
          0 1 2 3 4 5
          6 7 8 9 10 11
          12 13 14 15 16 17
          18 19 20 21 22 23
          24 25 26 27 28 29
          30 31 32 33 34 35
          36 37 38 39 40 41
          42 43 44 45 46 47
          48 49 50 51 52 53
          54 55 56 57 58 59
          60 61 62 63 64 65
          66 67 68 69 70 71
          72 73 74 75 76 77
          78 79 80 81 82 83
          84 85 86 87
        </DataArray>
        <DataArray type="Int64" Name="offsets" format="ascii" RangeMin="2" RangeMax="88">
          2 4 6 8 10 12
          14 16 18 20 22 24
          26 28 30 32 34 36
          38 40 42 44 46 48
          50 52 54 56 58 60
          62 64 66 68 70 72
          74 76 78 80 82 84
          86 88
        </DataArray>
        <DataArray type="UInt8" Name="types" format="ascii" RangeMin="3" RangeMax="3">
          3 3 3 3 3 3
          3 3 3 3 3 3
          3 3 3 3 3 3
          3 3 3 3 3 3
          3 3 3 3 3 3
          3 3 3 3 3 3
          3 3 3 3 3 3
          3 3
        </DataArray>
      </Cells>
    </Piece>
  </UnstructuredGrid>
</VTKFile>
