<VTKFile type="UnstructuredGrid" version="1.0" byte_order="LittleEndian" header_type="UInt64">
  <UnstructuredGrid>
    <Piece NumberOfPoints="163" NumberOfCells="121">
      <PointData>
        <DataArray type="Float32" Name="Scalar" format="ascii" RangeMin="0" RangeMax="70.75894927978516">
          0 4.1493683 4.1493683 5.805127 5.805127 6.4380794
          6.4380794 6.243899 6.243899 7.8321943 7.8321943 6.6584716
          6.6584716 8.684548 8.684548 8.280106 8.280106 9.003773
          9.003773 9.244814 9.244814 10.42808 10.42808 9.692116
          9.692116 11.058534 11.058534 10.010857 10.010857 12.129775
          12.129775 10.344954 10.344954 11.760066 11.760066 12.26299
          12.26299 10.431184 10.431184 12.452481 12.452481 14.530695
          14.530695 10.645031 10.645031 14.12002 14.12002 12.593695
          12.593695 14.276345 14.276345 10.694428 10.694428 13.558237
          13.558237 15.510149 15.510149 14.151228 14.151228 10.921392
          10.921392 13.727066 13.727066 11.236405 11.236405 14.451643
          14.451643 12.076822 12.076822 12.666609 12.666609 12.823345
          12.823345 14.197397 14.197397 19.115791 19.115791 14.406193
          14.406193 14.572613 14.572613 15.847382 15.847382 16.365318
          16.365318 17.798035 17.798035 16.634865 16.634865 17.952225
          17.952225 18.579382 18.579382 19.54868 19.54868 22.84891
          22.84891 20.374537 20.374537 25.744606 25.744606 25.37686
          25.37686 35.09886 35.09886 32.595592 32.595592 25.72924
          25.72924 28.515116 28.515116 34.345997 34.345997 29.017307
          29.017307 36.665245 36.665245 35.872723 35.872723 45.27766
          45.27766 40.03021 40.03021 39.465324 39.465324 38.160366
          38.160366 47.300358 47.300358 46.753002 46.753002 42.116657
          42.116657 41.6867 41.6867 47.648525 47.648525 49.039833
          49.039833 49.75232 49.75232 49.67535 49.67535 53.493454
          53.493454 51.498184 51.498184 64.90024 64.90024 56.381428
          56.381428 65.716995 65.716995 66.35559 66.35559 65.93956
          65.93956 69.26751 69.26751 70.75895 70.75895 68.684494
          68.684494
        </DataArray>
      </PointData>
      <CellData>
        <DataArray type="Float64" Name="Persistence" format="ascii" RangeMin="1.4302034378051758" RangeMax="70.75894927978516">
          2.2887110710144043 2.027067184448242 2.2887110710144043 2.2887110710144043 2.4406495094299316 2.027067184448242
          2.027067184448242 2.3453011512756348 2.4406495094299316 2.4406495094299316 2.1479740142822266 2.3453011512756348
          2.3453011512756348 1.8137197494506836 2.1479740142822266 2.1479740142822266 2.43765926361084 1.8137197494506836
          1.8137197494506836 1.7492094039916992 2.43765926361084 2.43765926361084 5.165195465087891 1.7492094039916992
          1.7492094039916992 2.267704963684082 2.267704963684082 3.688836097717285 1.8238639831542969 2.267704963684082
          2.267704963684082 2.913206100463867 3.688836097717285 3.688836097717285 1.5575332641601562 1.8238639831542969
          1.8238639831542969 3.032637596130371 2.913206100463867 2.913206100463867 5.165195465087891 1.5575332641601562
          1.5575332641601562 3.5302505493164062 3.032637596130371 3.032637596130371 1.4302034378051758 3.5302505493164062
          3.5302505493164062 7.038969039916992 1.4302034378051758 1.4302034378051758 1.5828475952148438 1.5828475952148438
          1.649984359741211 7.038969039916992 1.5828475952148438 1.5828475952148438 3.225421905517578 1.649984359741211
          1.649984359741211 1.5869064331054688 3.225421905517578 3.225421905517578 2.9138145446777344 1.5869064331054688
          1.5869064331054688 1.7951545715332031 2.9138145446777344 2.9138145446777344 12.24995231628418 1.7951545715332031
          1.7951545715332031 6.850986480712891 6.850986480712891 3.138256072998047 12.24995231628418 6.850986480712891
          6.850986480712891 3.288066864013672 3.138256072998047 3.138256072998047 7.770660400390625 3.288066864013672
          3.288066864013672 3.3649635314941406 2.2876434326171875 2.2876434326171875 1.475341796875 3.3649635314941406
          3.3649635314941406 2.22137451171875 2.2876434326171875 2.2876434326171875 1.7394752502441406 1.475341796875
          1.475341796875 7.770660400390625 2.22137451171875 2.22137451171875 2.026824951171875 1.7394752502441406
          1.7394752502441406 1.7458648681640625 2.026824951171875 2.026824951171875 2.8879737854003906 1.7458648681640625
          1.7458648681640625 1.455352783203125 2.8879737854003906 2.8879737854003906 3.5505142211914062 1.455352783203125
          1.455352783203125 2.74493408203125 3.5505142211914062 3.5505142211914062 70.75894927978516 2.74493408203125
          2.74493408203125
        </DataArray>
        <DataArray type="Int32" Name="ClusterID" format="ascii" RangeMin="1" RangeMax="1">
          1 1 1 1 1 1
          1 1 1 1 1 1
          1 1 1 1 1 1
          1 1 1 1 1 1
          1 1 1 1 1 1
          1 1 1 1 1 1
          1 1 1 1 1 1
          1 1 1 1 1 1
          1 1 1 1 1 1
          1 1 1 1 1 1
          1 1 1 1 1 1
          1 1 1 1 1 1
          1 1 1 1 1 1
          1 1 1 1 1 1
          1 1 1 1 1 1
          1 1 1 1 1 1
          1 1 1 1 1 1
          1 1 1 1 1 1
          1 1 1 1 1 1
          1 1 1 1 1 1
          1
        </DataArray>
        <DataArray type="Int32" Name="TreeID" format="ascii" RangeMin="1" RangeMax="1">
          1 1 1 1 1 1
          1 1 1 1 1 1
          1 1 1 1 1 1
          1 1 1 1 1 1
          1 1 1 1 1 1
          1 1 1 1 1 1
          1 1 1 1 1 1
          1 1 1 1 1 1
          1 1 1 1 1 1
          1 1 1 1 1 1
          1 1 1 1 1 1
          1 1 1 1 1 1
          1 1 1 1 1 1
          1 1 1 1 1 1
          1 1 1 1 1 1
          1 1 1 1 1 1
          1 1 1 1 1 1
          1 1 1 1 1 1
          1 1 1 1 1 1
          1 1 1 1 1 1
          1
        </DataArray>
        <DataArray type="Int32" Name="isImportantPair" format="ascii" RangeMin="0" RangeMax="1">
          1 1 0 0 1 0
          0 1 0 0 1 0
          0 1 0 0 1 0
          0 1 0 0 1 0
          0 0 0 1 0 0
          0 1 0 0 0 0
          0 1 0 0 0 0
          0 1 0 0 1 0
          0 1 0 0 0 0
          1 0 0 0 1 0
          0 1 0 0 1 0
          0 1 0 0 1 0
          0 1 1 1 1 0
          0 1 0 0 1 0
          0 1 0 0 1 0
          0 0 0 0 1 0
          0 0 0 0 1 0
          0 1 0 0 1 0
          0 1 0 0 1 0
          0 1 0 0 1 0
          0
        </DataArray>
        <DataArray type="Int32" Name="isMultiPersPairArc" format="ascii" RangeMin="0" RangeMax="0">
          0 0 0 0 0 0
          0 0 0 0 0 0
          0 0 0 0 0 0
          0 0 0 0 0 0
          0 0 0 0 0 0
          0 0 0 0 0 0
          0 0 0 0 0 0
          0 0 0 0 0 0
          0 0 0 0 0 0
          0 0 0 0 0 0
          0 0 0 0 0 0
          0 0 0 0 0 0
          0 0 0 0 0 0
          0 0 0 0 0 0
          0 0 0 0 0 0
          0 0 0 0 0 0
          0 0 0 0 0 0
          0 0 0 0 0 0
          0 0 0 0 0 0
          0 0 0 0 0 0
          0
        </DataArray>
        <DataArray type="Int32" Name="isDummyArc" format="ascii" RangeMin="0" RangeMax="1">
          0 0 1 0 0 1
          0 0 1 0 0 1
          0 0 1 0 0 1
          0 0 1 0 0 1
          0 1 0 0 0 1
          0 0 1 0 0 1
          0 0 1 0 0 1
          0 0 1 0 0 1
          0 0 1 0 1 0
          0 0 1 0 0 1
          0 0 1 0 0 1
          0 0 1 0 0 1
          0 1 0 0 0 1
          0 0 1 0 0 1
          0 0 1 0 0 1
          0 0 1 0 0 1
          0 0 1 0 0 1
          0 0 1 0 0 1
          0 0 1 0 0 1
          0 0 1 0 0 1
          0
        </DataArray>
        <DataArray type="Int32" Name="BranchID" format="ascii" RangeMin="0" RangeMax="40">
          0 0 1 1 0 2
          2 0 3 3 0 4
          4 0 5 5 0 6
          6 0 7 7 0 8
          8 9 9 0 9 10
          10 0 11 11 9 12
          12 0 13 13 9 14
          14 0 15 15 0 16
          16 0 17 17 18 18
          0 18 19 19 0 20
          20 0 21 21 0 22
          22 0 23 23 0 24
          24 25 25 0 25 26
          26 0 27 27 0 28
          28 0 29 29 0 30
          30 29 31 31 0 32
          32 29 33 33 0 34
          34 0 35 35 0 36
          36 0 37 37 0 38
          38 0 39 39 0 40
          40
        </DataArray>
        <DataArray type="Int32" Name="upNodeId" format="ascii" RangeMin="0" RangeMax="156">
          0 2 2 2 4 4
          4 8 8 8 12 12
          12 16 16 16 20 20
          20 24 24 24 28 28
          28 32 32 32 36 36
          36 38 38 38 40 40
          40 44 44 44 48 48
          48 52 52 52 60 60
          60 64 64 64 68 68
          68 72 72 72 74 74
          74 80 80 80 84 84
          84 88 88 88 92 92
          92 96 96 96 100 100
          100 102 102 102 108 108
          108 112 112 112 116 116
          116 118 118 118 120 120
          120 124 124 124 128 128
          128 136 136 136 140 140
          140 144 144 144 148 148
          148 152 152 152 156 156
          156
        </DataArray>
        <DataArray type="Int32" Name="downNodeId" format="ascii" RangeMin="2" RangeMax="162">
          2 4 6 6 8 10
          10 12 14 14 16 18
          18 20 22 22 24 26
          26 28 30 30 32 34
          34 36 36 38 40 42
          42 44 46 46 48 50
          50 52 54 54 56 58
          58 60 62 62 64 66
          66 68 70 70 72 72
          74 76 78 78 80 82
          82 84 86 86 88 90
          90 92 94 94 96 98
          98 100 100 102 104 106
          106 108 110 110 112 114
          114 116 118 118 120 122
          122 124 126 126 128 130
          130 132 134 134 136 138
          138 140 142 142 144 146
          146 148 150 150 152 154
          154 156 158 158 160 162
          162
        </DataArray>
        <DataArray type="Float32" Name="PercentMatchArc" format="ascii" RangeMin="33.33333206176758" RangeMax="33.33333206176758">
          33.333332 33.333332 33.333332 33.333332 33.333332 33.333332
          33.333332 33.333332 33.333332 33.333332 33.333332 33.333332
          33.333332 33.333332 33.333332 33.333332 33.333332 33.333332
          33.333332 33.333332 33.333332 33.333332 33.333332 33.333332
          33.333332 33.333332 33.333332 33.333332 33.333332 33.333332
          33.333332 33.333332 33.333332 33.333332 33.333332 33.333332
          33.333332 33.333332 33.333332 33.333332 33.333332 33.333332
          33.333332 33.333332 33.333332 33.333332 33.333332 33.333332
          33.333332 33.333332 33.333332 33.333332 33.333332 33.333332
          33.333332 33.333332 33.333332 33.333332 33.333332 33.333332
          33.333332 33.333332 33.333332 33.333332 33.333332 33.333332
          33.333332 33.333332 33.333332 33.333332 33.333332 33.333332
          33.333332 33.333332 33.333332 33.333332 33.333332 33.333332
          33.333332 33.333332 33.333332 33.333332 33.333332 33.333332
          33.333332 33.333332 33.333332 33.333332 33.333332 33.333332
          33.333332 33.333332 33.333332 33.333332 33.333332 33.333332
          33.333332 33.333332 33.333332 33.333332 33.333332 33.333332
          33.333332 33.333332 33.333332 33.333332 33.333332 33.333332
          33.333332 33.333332 33.333332 33.333332 33.333332 33.333332
          33.333332 33.333332 33.333332 33.333332 33.333332 33.333332
          33.333332
        </DataArray>
        <DataArray type="Float64" Name="Birth" format="ascii" RangeMin="0" RangeMax="65.93955993652344">
          4.1493682861328125 5.805127143859863 4.1493682861328125 4.1493682861328125 6.243898868560791 5.805127143859863
          5.805127143859863 6.658471584320068 6.243898868560791 6.243898868560791 8.280105590820312 6.658471584320068
          6.658471584320068 9.244813919067383 8.280105590820312 8.280105590820312 9.692115783691406 9.244813919067383
          9.244813919067383 10.010856628417969 9.692115783691406 9.692115783691406 10.344953536987305 10.010856628417969
          10.010856628417969 12.26298999786377 12.26298999786377 10.431183815002441 12.452481269836426 12.26298999786377
          12.26298999786377 10.645030975341797 10.431183815002441 10.431183815002441 12.593694686889648 12.452481269836426
          12.452481269836426 10.694428443908691 10.645030975341797 10.645030975341797 10.344953536987305 12.593694686889648
          12.593694686889648 10.921392440795898 10.694428443908691 10.694428443908691 11.236405372619629 10.921392440795898
          10.921392440795898 12.076822280883789 11.236405372619629 11.236405372619629 12.823345184326172 12.823345184326172
          14.197397232055664 12.076822280883789 12.823345184326172 12.823345184326172 14.572612762451172 14.197397232055664
          14.197397232055664 16.365318298339844 14.572612762451172 14.572612762451172 16.634864807128906 16.365318298339844
          16.365318298339844 18.579381942749023 16.634864807128906 16.634864807128906 22.848909378051758 18.579381942749023
          18.579381942749023 25.744606018066406 25.744606018066406 25.376859664916992 22.848909378051758 25.744606018066406
          25.744606018066406 25.72924041748047 25.376859664916992 25.376859664916992 34.34599685668945 25.72924041748047
          25.72924041748047 36.665245056152344 35.87272262573242 35.87272262573242 45.27766036987305 36.665245056152344
          36.665245056152344 39.46532440185547 35.87272262573242 35.87272262573242 47.300357818603516 45.27766036987305
          45.27766036987305 34.34599685668945 39.46532440185547 39.46532440185547 47.64852523803711 47.300357818603516
          47.300357818603516 49.7523193359375 47.64852523803711 47.64852523803711 53.49345397949219 49.7523193359375
          49.7523193359375 64.90023803710938 53.49345397949219 53.49345397949219 65.71699523925781 64.90023803710938
          64.90023803710938 65.93955993652344 65.71699523925781 65.71699523925781 0 65.93955993652344
          65.93955993652344
        </DataArray>
      </CellData>
      <Points>
        <DataArray type="Float32" Name="Points" NumberOfComponents="3" format="ascii" RangeMin="394.64687513544914" RangeMax="414.0870088677182">
          397.5968 0 0 394.62506 4.1493683 0
          397.5968 4.1493683 0 394.66043 5.805127 0
          397.5968 5.805127 0 394.62506 6.4380794 0
          394.62506 6.4380794 0 394.69583 6.243899 0
          397.5968 6.243899 0 394.66043 7.832195 0
          394.66043 7.832195 0 394.7312 6.658472 0
          397.5968 6.658472 0 394.69583 8.684548 0
          394.69583 8.684548 0 394.76657 8.280106 0
          397.5968 8.280106 0 394.7312 9.003773 0
          394.7312 9.003773 0 394.80197 9.244814 0
          397.5968 9.244814 0 394.76657 10.42808 0
          394.76657 10.42808 0 394.83734 9.692116 0
          397.5968 9.692116 0 394.80197 11.058534 0
          394.80197 11.058534 0 394.8727 10.010857 0
          397.5968 10.010857 0 394.83734 12.129775 0
          394.83734 12.129775 0 395.01422 10.344954 0
          397.5968 10.344954 0 394.8727 11.760067 0
          394.8727 11.760067 0 394.9081 12.26299 0
          395.01422 12.26299 0 395.04962 10.431184 0
          397.5968 10.431184 0 394.94348 12.452481 0
          395.01422 12.452481 0 394.9081 14.530695 0
          394.9081 14.530695 0 395.085 10.645031 0
          397.5968 10.645031 0 395.04962 14.12002 0
          395.04962 14.12002 0 394.97885 12.593695 0
          395.01422 12.593695 0 394.94348 14.276345 0
          394.94348 14.276345 0 395.12036 10.694428 0
          397.5968 10.694428 0 395.085 13.558237 0
          395.085 13.558237 0 395.01422 15.510149 0
          395.01422 15.510149 0 394.97885 14.151228 0
          394.97885 14.151228 0 395.15576 10.921392 0
          397.5968 10.921392 0 395.12036 13.727066 0
          395.12036 13.727066 0 395.19113 11.236405 0
          397.5968 11.236405 0 395.15576 14.451643 0
          395.15576 14.451643 0 395.2619 12.076822 0
          397.5968 12.076822 0 395.19113 12.66661 0
          395.19113 12.66661 0 395.2265 12.823345 0
          395.2619 12.823345 0 395.29727 14.197398 0
          397.5968 14.197398 0 395.2619 19.115791 0
          395.2619 19.115791 0 395.2265 14.406193 0
          395.2265 14.406193 0 395.33264 14.572613 0
          397.5968 14.572613 0 395.29727 15.847382 0
          395.29727 15.847382 0 395.36804 16.365318 0
          397.5968 16.365318 0 395.33264 17.798035 0
          395.33264 17.798035 0 395.4034 16.634865 0
          397.5968 16.634865 0 395.36804 17.952227 0
          395.36804 17.952227 0 395.43878 18.579382 0
          397.5968 18.579382 0 395.4034 19.54868 0
          395.4034 19.54868 0 412.5968 22.84891 0
          397.5968 22.84891 0 395.43878 20.374537 0
          395.43878 20.374537 0 410.31674 25.744606 0
          412.5968 25.744606 0 395.4034 25.37686 0
          397.5968 25.37686 0 412.5968 35.09886 0
          412.5968 35.09886 0 410.31674 32.595592 0
          410.31674 32.595592 0 395.43878 25.729242 0
          397.5968 25.729242 0 395.4034 28.515116 0
          395.4034 28.515116 0 395.4034 34.345997 0
          397.5968 34.345997 0 395.43878 29.017307 0
          395.43878 29.017307 0 395.43878 36.665245 0
          397.5968 36.665245 0 395.36804 35.872723 0
          395.4034 35.872723 0 395.43878 45.277657 0
          397.5968 45.277657 0 395.43878 40.03021 0
          395.43878 40.03021 0 395.36804 39.46533 0
          395.4034 39.46533 0 395.36804 38.160366 0
          395.36804 38.160366 0 395.4034 47.300358 0
          397.5968 47.300358 0 395.43878 46.753002 0
          395.43878 46.753002 0 395.4034 42.116657 0
          395.4034 42.116657 0 395.36804 41.6867 0
          395.36804 41.6867 0 395.43878 47.648525 0
          397.5968 47.648525 0 395.4034 49.039833 0
          395.4034 49.039833 0 395.43878 49.75232 0
          397.5968 49.75232 0 395.43878 49.675346 0
          395.43878 49.675346 0 395.43878 53.493454 0
          397.5968 53.493454 0 395.43878 51.498184 0
          395.43878 51.498184 0 395.36804 64.90024 0
          397.5968 64.90024 0 395.43878 56.381428 0
          395.43878 56.381428 0 395.4034 65.716995 0
          397.5968 65.716995 0 395.36804 66.35559 0
          395.36804 66.35559 0 395.43878 65.93956 0
          397.5968 65.93956 0 395.4034 69.26751 0
          395.4034 69.26751 0 397.5968 70.75895 0
          397.5968 70.75895 0 395.43878 68.684494 0
          395.43878 68.684494 0
          <InformationKey name="L2_NORM_RANGE" location="vtkDataArray" length="2">
            <Value index="0">
              394.64687514
            </Value>
            <Value index="1">
              414.08700887
            </Value>
          </InformationKey>
          <InformationKey name="L2_NORM_FINITE_RANGE" location="vtkDataArray" length="2">
            <Value index="0">
              394.64687514
            </Value>
            <Value index="1">
              414.08700887
            </Value>
          </InformationKey>
        </DataArray>
      </Points>
      <Cells>
        <DataArray type="Int64" Name="connectivity" format="ascii" RangeMin="0" RangeMax="162">
          2 0 4 2 1 2
          6 1 8 4 3 4
          10 3 12 8 7 8
          14 7 16 12 11 12
          18 11 20 16 15 16
          22 15 24 20 19 20
          26 19 28 24 23 24
          30 23 32 28 27 28
          34 27 31 32 36 31
          38 32 40 36 35 36
          42 35 44 38 37 38
          46 37 48 40 39 40
          50 39 52 44 43 44
          54 43 56 48 47 48
          58 47 60 52 51 52
          62 51 64 60 59 60
          66 59 68 64 63 64
          70 63 67 68 72 67
          74 68 76 72 71 72
          78 71 80 74 73 74
          82 73 84 80 79 80
          86 79 88 84 83 84
          90 83 92 88 87 88
          94 87 96 92 91 92
          98 91 95 96 100 95
          102 96 104 100 99 100
          106 99 108 102 101 102
          110 101 112 108 107 108
          114 107 116 112 111 112
          118 111 120 116 115 116
          122 115 124 118 117 118
          126 117 128 120 119 120
          130 119 132 124 123 124
          134 123 136 128 127 128
          138 127 140 136 135 136
          142 135 144 140 139 140
          146 139 148 144 143 144
          150 143 152 148 147 148
          154 147 156 152 151 152
          158 151 160 156 155 156
          162 155
        </DataArray>
        <DataArray type="Int64" Name="offsets" format="ascii" RangeMin="2" RangeMax="242">
          2 4 6 8 10 12
          14 16 18 20 22 24
          26 28 30 32 34 36
          38 40 42 44 46 48
          50 52 54 56 58 60
          62 64 66 68 70 72
          74 76 78 80 82 84
          86 88 90 92 94 96
          98 100 102 104 106 108
          110 112 114 116 118 120
          122 124 126 128 130 132
          134 136 138 140 142 144
          146 148 150 152 154 156
          158 160 162 164 166 168
          170 172 174 176 178 180
          182 184 186 188 190 192
          194 196 198 200 202 204
          206 208 210 212 214 216
          218 220 222 224 226 228
          230 232 234 236 238 240
          242
        </DataArray>
        <DataArray type="UInt8" Name="types" format="ascii" RangeMin="3" RangeMax="3">
          3 3 3 3 3 3
          3 3 3 3 3 3
          3 3 3 3 3 3
          3 3 3 3 3 3
          3 3 3 3 3 3
          3 3 3 3 3 3
          3 3 3 3 3 3
          3 3 3 3 3 3
          3 3 3 3 3 3
          3 3 3 3 3 3
          3 3 3 3 3 3
          3 3 3 3 3 3
          3 3 3 3 3 3
          3 3 3 3 3 3
          3 3 3 3 3 3
          3 3 3 3 3 3
          3 3 3 3 3 3
          3 3 3 3 3 3
          3 3 3 3 3 3
          3 3 3 3 3 3
          3
        </DataArray>
      </Cells>
    </Piece>
  </UnstructuredGrid>
</VTKFile>
