<VTKFile type="UnstructuredGrid" version="1.0" byte_order="LittleEndian" header_type="UInt64">
  <UnstructuredGrid>
    <Piece NumberOfPoints="163" NumberOfCells="121">
      <PointData>
        <DataArray type="Float32" Name="Scalar" format="ascii" RangeMin="0" RangeMax="70.75894927978516">
          0 4.1493683 4.1493683 5.805127 5.805127 6.4380794
          6.4380794 6.243899 6.243899 7.8321943 7.8321943 6.6584716
          6.6584716 8.684548 8.684548 8.280106 8.280106 9.003773
          9.003773 9.244814 9.244814 10.42808 10.42808 9.692116
          9.692116 11.058534 11.058534 10.010857 10.010857 12.129775
          12.129775 10.344954 10.344954 11.760066 11.760066 12.26299
          12.26299 10.431184 10.431184 12.452481 12.452481 14.530695
          14.530695 10.645031 10.645031 14.12002 14.12002 12.593695
          12.593695 14.276345 14.276345 10.694428 10.694428 13.558237
          13.558237 15.510149 15.510149 14.151228 14.151228 10.921392
          10.921392 13.727066 13.727066 11.236405 11.236405 14.451643
          14.451643 12.076822 12.076822 12.666609 12.666609 12.823345
          12.823345 14.197397 14.197397 19.115791 19.115791 14.406193
          14.406193 14.572613 14.572613 15.847382 15.847382 16.365318
          16.365318 17.798035 17.798035 16.634865 16.634865 17.952225
          17.952225 18.579382 18.579382 19.54868 19.54868 22.84891
          22.84891 20.374537 20.374537 25.744606 25.744606 25.37686
          25.37686 35.09886 35.09886 32.595592 32.595592 25.72924
          25.72924 28.515116 28.515116 34.345997 34.345997 29.017307
          29.017307 36.665245 36.665245 35.872723 35.872723 45.27766
          45.27766 40.03021 40.03021 39.465324 39.465324 38.160366
          38.160366 47.300358 47.300358 46.753002 46.753002 42.116657
          42.116657 41.6867 41.6867 47.648525 47.648525 49.039833
          49.039833 49.75232 49.75232 49.67535 49.67535 53.493454
          53.493454 51.498184 51.498184 64.90024 64.90024 56.381428
          56.381428 65.716995 65.716995 66.35559 66.35559 65.93956
          65.93956 69.26751 69.26751 70.75895 70.75895 68.684494
          68.684494
        </DataArray>
      </PointData>
      <CellData>
        <DataArray type="Float64" Name="NodeId" format="ascii" RangeMin="11" RangeMax="1134">
          1134 1134 988 988 1134 893
          893 1134 837 837 1134 773
          773 1134 620 620 1134 516
          516 1134 472 472 1134 447
          447 417 417 1134 417 278
          278 1134 410 410 417 270
          270 1134 398 398 417 260
          260 1134 397 397 1134 382
          382 1134 338 338 291 291
          1134 291 257 257 1134 222
          222 1134 210 210 1134 178
          178 1134 172 172 1134 145
          145 117 117 1134 117 109
          109 1134 111 111 1134 110
          110 1134 85 85 1134 76
          76 85 79 79 1134 53
          53 85 74 74 1134 49
          49 1134 47 47 1134 41
          41 1134 33 33 1134 15
          15 1134 13 13 1134 11
          11
        </DataArray>
        <DataArray type="Float64" Name="Scalar" format="ascii" RangeMin="0" RangeMax="65.93955993652344">
          0 0 4.1493682861328125 4.1493682861328125 0 5.805127143859863
          5.805127143859863 0 6.243898868560791 6.243898868560791 0 6.658471584320068
          6.658471584320068 0 8.280105590820312 8.280105590820312 0 9.244813919067383
          9.244813919067383 0 9.692115783691406 9.692115783691406 0 10.010856628417969
          10.010856628417969 10.344953536987305 10.344953536987305 0 10.344953536987305 12.26298999786377
          12.26298999786377 0 10.431183815002441 10.431183815002441 10.344953536987305 12.452481269836426
          12.452481269836426 0 10.645030975341797 10.645030975341797 10.344953536987305 12.593694686889648
          12.593694686889648 0 10.694428443908691 10.694428443908691 0 10.921392440795898
          10.921392440795898 0 11.236405372619629 11.236405372619629 12.076822280883789 12.076822280883789
          0 12.076822280883789 12.823345184326172 12.823345184326172 0 14.197397232055664
          14.197397232055664 0 14.572612762451172 14.572612762451172 0 16.365318298339844
          16.365318298339844 0 16.634864807128906 16.634864807128906 0 18.579381942749023
          18.579381942749023 22.848909378051758 22.848909378051758 0 22.848909378051758 25.744606018066406
          25.744606018066406 0 25.376859664916992 25.376859664916992 0 25.72924041748047
          25.72924041748047 0 34.34599685668945 34.34599685668945 0 36.665245056152344
          36.665245056152344 34.34599685668945 35.87272262573242 35.87272262573242 0 45.27766036987305
          45.27766036987305 34.34599685668945 39.46532440185547 39.46532440185547 0 47.300357818603516
          47.300357818603516 0 47.64852523803711 47.64852523803711 0 49.7523193359375
          49.7523193359375 0 53.49345397949219 53.49345397949219 0 64.90023803710938
          64.90023803710938 0 65.71699523925781 65.71699523925781 0 65.93955993652344
          65.93955993652344
        </DataArray>
        <DataArray type="Float64" Name="VertexId" format="ascii" RangeMin="0" RangeMax="386084">
          0 0 31544 31544 0 23625
          23625 0 22881 22881 0 37136
          37136 0 382577 382577 0 383211
          383211 0 384335 384335 0 383612
          383612 386084 386084 0 386084 384964
          384964 0 290976 290976 386084 384844
          384844 0 372870 372870 386084 384962
          384962 0 354463 354463 0 266993
          266993 0 384710 384710 336085 336085
          0 336085 382836 382836 0 253375
          253375 0 19951 19951 0 234726
          234726 0 222932 222932 0 296847
          296847 242186 242186 0 242186 278530
          278530 0 289217 289217 0 291473
          291473 0 195218 195218 0 164094
          164094 195218 210841 210841 0 23216
          23216 195218 226334 226334 0 102099
          102099 0 117850 117850 0 118225
          118225 0 101959 101959 0 25342
          25342 0 24963 24963 0 40963
          40963
        </DataArray>
        <DataArray type="Float64" Name="CriticalType" format="ascii" RangeMin="0" RangeMax="4">
          0 0 2 2 0 2
          2 0 2 2 0 4
          4 0 2 2 0 2
          2 0 2 2 0 2
          2 2 2 0 2 2
          2 0 2 2 2 2
          2 0 2 2 2 2
          2 0 2 2 0 2
          2 0 2 2 2 2
          0 2 2 2 0 2
          2 0 2 2 0 2
          2 0 2 2 0 2
          2 2 2 0 2 2
          2 0 2 2 0 2
          2 0 2 2 0 2
          2 2 2 2 0 2
          2 2 2 2 0 2
          2 0 2 2 0 2
          2 0 2 2 0 4
          4 0 2 2 0 2
          2
        </DataArray>
        <DataArray type="Float64" Name="RegionSize" format="ascii" RangeMin="0" RangeMax="10455">
          4812 4812 3199 3199 4812 118
          118 4812 439 439 4812 1238
          1238 4812 241 241 4812 141
          141 4812 96 96 4812 1501
          1501 103 103 4812 103 78
          78 4812 949 949 103 8
          8 4812 1498 1498 103 5
          5 4812 73 73 4812 574
          574 4812 62 62 1805 1805
          4812 1805 10 10 4812 3680
          3680 4812 4271 4271 4812 1000
          1000 4812 579 579 4812 10455
          10455 720 720 4812 720 4501
          4501 4812 3582 3582 4812 458
          458 4812 756 756 4812 253
          253 756 59 59 4812 153
          153 756 79 79 4812 23
          23 4812 56 56 4812 384
          384 4812 305 305 4812 49
          49 4812 15 15 4812 0
          0
        </DataArray>
        <DataArray type="Float64" Name="RegionSpan" format="ascii" RangeMin="5" RangeMax="572">
          145 145 153 153 145 531
          531 145 239 239 145 166
          166 145 314 314 145 12
          12 145 63 63 145 386
          386 172 172 145 172 14
          14 145 96 96 172 12
          12 145 480 480 172 8
          8 145 21 21 145 540
          540 145 35 35 254 254
          145 254 48 48 145 121
          121 145 311 311 145 572
          572 145 157 157 145 105
          105 99 99 145 99 214
          214 145 124 124 145 76
          76 145 78 78 145 80
          80 78 8 8 145 50
          50 78 28 28 145 11
          11 145 6 6 145 12
          12 145 84 84 145 42
          42 145 20 20 145 5
          5
        </DataArray>
        <DataArray type="Float64" Name="Persistence" format="ascii" RangeMin="1.4302034378051758" RangeMax="70.75894927978516">
          2.2887110710144043 2.027067184448242 2.2887110710144043 2.2887110710144043 2.4406495094299316 2.027067184448242
          2.027067184448242 2.3453011512756348 2.4406495094299316 2.4406495094299316 2.1479740142822266 2.3453011512756348
          2.3453011512756348 1.8137197494506836 2.1479740142822266 2.1479740142822266 2.43765926361084 1.8137197494506836
          1.8137197494506836 1.7492094039916992 2.43765926361084 2.43765926361084 5.165195465087891 1.7492094039916992
          1.7492094039916992 2.267704963684082 2.267704963684082 3.688836097717285 1.8238639831542969 2.267704963684082
          2.267704963684082 2.913206100463867 3.688836097717285 3.688836097717285 1.5575332641601562 1.8238639831542969
          1.8238639831542969 3.032637596130371 2.913206100463867 2.913206100463867 5.165195465087891 1.5575332641601562
          1.5575332641601562 3.5302505493164062 3.032637596130371 3.032637596130371 1.4302034378051758 3.5302505493164062
          3.5302505493164062 7.038969039916992 1.4302034378051758 1.4302034378051758 1.5828475952148438 1.5828475952148438
          1.649984359741211 7.038969039916992 1.5828475952148438 1.5828475952148438 3.225421905517578 1.649984359741211
          1.649984359741211 1.5869064331054688 3.225421905517578 3.225421905517578 2.9138145446777344 1.5869064331054688
          1.5869064331054688 1.7951545715332031 2.9138145446777344 2.9138145446777344 12.24995231628418 1.7951545715332031
          1.7951545715332031 6.850986480712891 6.850986480712891 3.138256072998047 12.24995231628418 6.850986480712891
          6.850986480712891 3.288066864013672 3.138256072998047 3.138256072998047 7.770660400390625 3.288066864013672
          3.288066864013672 3.3649635314941406 2.2876434326171875 2.2876434326171875 1.475341796875 3.3649635314941406
          3.3649635314941406 2.22137451171875 2.2876434326171875 2.2876434326171875 1.7394752502441406 1.475341796875
          1.475341796875 7.770660400390625 2.22137451171875 2.22137451171875 2.026824951171875 1.7394752502441406
          1.7394752502441406 1.7458648681640625 2.026824951171875 2.026824951171875 2.8879737854003906 1.7458648681640625
          1.7458648681640625 1.455352783203125 2.8879737854003906 2.8879737854003906 3.5505142211914062 1.455352783203125
          1.455352783203125 2.74493408203125 3.5505142211914062 3.5505142211914062 70.75894927978516 2.74493408203125
          2.74493408203125
        </DataArray>
        <DataArray type="Int32" Name="ClusterID" format="ascii" RangeMin="1" RangeMax="1">
          1 1 1 1 1 1
          1 1 1 1 1 1
          1 1 1 1 1 1
          1 1 1 1 1 1
          1 1 1 1 1 1
          1 1 1 1 1 1
          1 1 1 1 1 1
          1 1 1 1 1 1
          1 1 1 1 1 1
          1 1 1 1 1 1
          1 1 1 1 1 1
          1 1 1 1 1 1
          1 1 1 1 1 1
          1 1 1 1 1 1
          1 1 1 1 1 1
          1 1 1 1 1 1
          1 1 1 1 1 1
          1 1 1 1 1 1
          1 1 1 1 1 1
          1 1 1 1 1 1
          1
        </DataArray>
        <DataArray type="Int32" Name="TreeID" format="ascii" RangeMin="1" RangeMax="1">
          1 1 1 1 1 1
          1 1 1 1 1 1
          1 1 1 1 1 1
          1 1 1 1 1 1
          1 1 1 1 1 1
          1 1 1 1 1 1
          1 1 1 1 1 1
          1 1 1 1 1 1
          1 1 1 1 1 1
          1 1 1 1 1 1
          1 1 1 1 1 1
          1 1 1 1 1 1
          1 1 1 1 1 1
          1 1 1 1 1 1
          1 1 1 1 1 1
          1 1 1 1 1 1
          1 1 1 1 1 1
          1 1 1 1 1 1
          1 1 1 1 1 1
          1 1 1 1 1 1
          1
        </DataArray>
        <DataArray type="Int32" Name="isImportantPair" format="ascii" RangeMin="0" RangeMax="1">
          1 1 0 0 1 0
          0 1 0 0 1 0
          0 1 0 0 1 0
          0 1 0 0 1 0
          0 0 0 1 0 0
          0 1 0 0 0 0
          0 1 0 0 0 0
          0 1 0 0 1 0
          0 1 0 0 0 0
          1 0 0 0 1 0
          0 1 0 0 1 0
          0 1 0 0 1 0
          0 1 1 1 1 0
          0 1 0 0 1 0
          0 1 0 0 1 0
          0 0 0 0 1 0
          0 0 0 0 1 0
          0 1 0 0 1 0
          0 1 0 0 1 0
          0 1 0 0 1 0
          0
        </DataArray>
        <DataArray type="Int32" Name="isMultiPersPairArc" format="ascii" RangeMin="0" RangeMax="0">
          0 0 0 0 0 0
          0 0 0 0 0 0
          0 0 0 0 0 0
          0 0 0 0 0 0
          0 0 0 0 0 0
          0 0 0 0 0 0
          0 0 0 0 0 0
          0 0 0 0 0 0
          0 0 0 0 0 0
          0 0 0 0 0 0
          0 0 0 0 0 0
          0 0 0 0 0 0
          0 0 0 0 0 0
          0 0 0 0 0 0
          0 0 0 0 0 0
          0 0 0 0 0 0
          0 0 0 0 0 0
          0 0 0 0 0 0
          0 0 0 0 0 0
          0 0 0 0 0 0
          0
        </DataArray>
        <DataArray type="Int32" Name="isDummyArc" format="ascii" RangeMin="0" RangeMax="1">
          0 0 1 0 0 1
          0 0 1 0 0 1
          0 0 1 0 0 1
          0 0 1 0 0 1
          0 1 0 0 0 1
          0 0 1 0 0 1
          0 0 1 0 0 1
          0 0 1 0 0 1
          0 0 1 0 1 0
          0 0 1 0 0 1
          0 0 1 0 0 1
          0 0 1 0 0 1
          0 1 0 0 0 1
          0 0 1 0 0 1
          0 0 1 0 0 1
          0 0 1 0 0 1
          0 0 1 0 0 1
          0 0 1 0 0 1
          0 0 1 0 0 1
          0 0 1 0 0 1
          0
        </DataArray>
        <DataArray type="Int32" Name="BranchID" format="ascii" RangeMin="0" RangeMax="40">
          0 0 1 1 0 2
          2 0 3 3 0 4
          4 0 5 5 0 6
          6 0 7 7 0 8
          8 9 9 0 9 10
          10 0 11 11 9 12
          12 0 13 13 9 14
          14 0 15 15 0 16
          16 0 17 17 18 18
          0 18 19 19 0 20
          20 0 21 21 0 22
          22 0 23 23 0 24
          24 25 25 0 25 26
          26 0 27 27 0 28
          28 0 29 29 0 30
          30 29 31 31 0 32
          32 29 33 33 0 34
          34 0 35 35 0 36
          36 0 37 37 0 38
          38 0 39 39 0 40
          40
        </DataArray>
        <DataArray type="Int32" Name="upNodeId" format="ascii" RangeMin="0" RangeMax="156">
          0 2 2 2 4 4
          4 8 8 8 12 12
          12 16 16 16 20 20
          20 24 24 24 28 28
          28 32 32 32 36 36
          36 38 38 38 40 40
          40 44 44 44 48 48
          48 52 52 52 60 60
          60 64 64 64 68 68
          68 72 72 72 74 74
          74 80 80 80 84 84
          84 88 88 88 92 92
          92 96 96 96 100 100
          100 102 102 102 108 108
          108 112 112 112 116 116
          116 118 118 118 120 120
          120 124 124 124 128 128
          128 136 136 136 140 140
          140 144 144 144 148 148
          148 152 152 152 156 156
          156
        </DataArray>
        <DataArray type="Int32" Name="downNodeId" format="ascii" RangeMin="2" RangeMax="162">
          2 4 6 6 8 10
          10 12 14 14 16 18
          18 20 22 22 24 26
          26 28 30 30 32 34
          34 36 36 38 40 42
          42 44 46 46 48 50
          50 52 54 54 56 58
          58 60 62 62 64 66
          66 68 70 70 72 72
          74 76 78 78 80 82
          82 84 86 86 88 90
          90 92 94 94 96 98
          98 100 100 102 104 106
          106 108 110 110 112 114
          114 116 118 118 120 122
          122 124 126 126 128 130
          130 132 134 134 136 138
          138 140 142 142 144 146
          146 148 150 150 152 154
          154 156 158 158 160 162
          162
        </DataArray>
        <DataArray type="Int32" Name="BranchBaryNodeID" format="ascii" RangeMin="0" RangeMax="40">
          0 0 1 1 0 2
          2 0 3 3 0 4
          4 0 5 5 0 6
          6 0 7 7 0 8
          8 9 9 0 9 10
          10 0 11 11 9 12
          12 0 13 13 9 14
          14 0 15 15 0 16
          16 0 17 17 18 18
          0 18 19 19 0 20
          20 0 21 21 0 22
          22 0 23 23 0 24
          24 25 25 0 25 26
          26 0 27 27 0 28
          28 0 29 29 0 30
          30 29 31 31 0 32
          32 29 33 33 0 34
          34 0 35 35 0 36
          36 0 37 37 0 38
          38 0 39 39 0 40
          40
        </DataArray>
        <DataArray type="Float32" Name="PersistenceBarycenter" format="ascii" RangeMin="1.4302034378051758" RangeMax="70.75894927978516">
          70.75895 70.75895 2.288711 2.288711 70.75895 2.0270672
          2.0270672 70.75895 2.4406495 2.4406495 70.75895 2.3453012
          2.3453012 70.75895 2.147974 2.147974 70.75895 1.8137197
          1.8137197 70.75895 2.4376593 2.4376593 70.75895 1.7492094
          1.7492094 5.1651955 5.1651955 70.75895 5.1651955 2.267705
          2.267705 70.75895 3.688836 3.688836 5.1651955 1.823864
          1.823864 70.75895 2.913206 2.913206 5.1651955 1.5575333
          1.5575333 70.75895 3.0326376 3.0326376 70.75895 3.5302505
          3.5302505 70.75895 1.4302034 1.4302034 7.038969 7.038969
          70.75895 7.038969 1.5828476 1.5828476 70.75895 1.6499844
          1.6499844 70.75895 3.225422 3.225422 70.75895 1.5869064
          1.5869064 70.75895 2.9138145 2.9138145 70.75895 1.7951546
          1.7951546 12.249952 12.249952 70.75895 12.249952 6.8509865
          6.8509865 70.75895 3.138256 3.138256 70.75895 3.2880669
          3.2880669 70.75895 7.7706604 7.7706604 70.75895 3.3649635
          3.3649635 7.7706604 2.2876434 2.2876434 70.75895 1.4753418
          1.4753418 7.7706604 2.2213745 2.2213745 70.75895 1.7394753
          1.7394753 70.75895 2.026825 2.026825 70.75895 1.7458649
          1.7458649 70.75895 2.8879738 2.8879738 70.75895 1.4553528
          1.4553528 70.75895 3.5505142 3.5505142 70.75895 2.744934
          2.744934
        </DataArray>
        <DataArray type="Int32" Name="PersistenceBarycenterOrder" format="ascii" RangeMin="0" RangeMax="40">
          0 0 21 21 0 26
          26 0 18 18 0 20
          20 0 25 25 0 29
          29 0 19 19 0 31
          31 5 5 0 5 23
          23 0 6 6 5 28
          28 0 15 15 5 37
          37 0 13 13 0 8
          8 0 40 40 3 3
          0 3 36 36 0 34
          34 0 11 11 0 35
          35 0 14 14 0 30
          30 1 1 0 1 4
          4 0 12 12 0 10
          10 0 2 2 0 9
          9 2 22 22 0 38
          38 2 24 24 0 33
          33 0 27 27 0 32
          32 0 16 16 0 39
          39 0 7 7 0 17
          17
        </DataArray>
        <DataArray type="Float64" Name="Birth" format="ascii" RangeMin="0" RangeMax="65.93955993652344">
          4.1493682861328125 5.805127143859863 4.1493682861328125 4.1493682861328125 6.243898868560791 5.805127143859863
          5.805127143859863 6.658471584320068 6.243898868560791 6.243898868560791 8.280105590820312 6.658471584320068
          6.658471584320068 9.244813919067383 8.280105590820312 8.280105590820312 9.692115783691406 9.244813919067383
          9.244813919067383 10.010856628417969 9.692115783691406 9.692115783691406 10.344953536987305 10.010856628417969
          10.010856628417969 12.26298999786377 12.26298999786377 10.431183815002441 12.452481269836426 12.26298999786377
          12.26298999786377 10.645030975341797 10.431183815002441 10.431183815002441 12.593694686889648 12.452481269836426
          12.452481269836426 10.694428443908691 10.645030975341797 10.645030975341797 10.344953536987305 12.593694686889648
          12.593694686889648 10.921392440795898 10.694428443908691 10.694428443908691 11.236405372619629 10.921392440795898
          10.921392440795898 12.076822280883789 11.236405372619629 11.236405372619629 12.823345184326172 12.823345184326172
          14.197397232055664 12.076822280883789 12.823345184326172 12.823345184326172 14.572612762451172 14.197397232055664
          14.197397232055664 16.365318298339844 14.572612762451172 14.572612762451172 16.634864807128906 16.365318298339844
          16.365318298339844 18.579381942749023 16.634864807128906 16.634864807128906 22.848909378051758 18.579381942749023
          18.579381942749023 25.744606018066406 25.744606018066406 25.376859664916992 22.848909378051758 25.744606018066406
          25.744606018066406 25.72924041748047 25.376859664916992 25.376859664916992 34.34599685668945 25.72924041748047
          25.72924041748047 36.665245056152344 35.87272262573242 35.87272262573242 45.27766036987305 36.665245056152344
          36.665245056152344 39.46532440185547 35.87272262573242 35.87272262573242 47.300357818603516 45.27766036987305
          45.27766036987305 34.34599685668945 39.46532440185547 39.46532440185547 47.64852523803711 47.300357818603516
          47.300357818603516 49.7523193359375 47.64852523803711 47.64852523803711 53.49345397949219 49.7523193359375
          49.7523193359375 64.90023803710938 53.49345397949219 53.49345397949219 65.71699523925781 64.90023803710938
          64.90023803710938 65.93955993652344 65.71699523925781 65.71699523925781 0 65.93955993652344
          65.93955993652344
        </DataArray>
      </CellData>
      <Points>
        <DataArray type="Float32" Name="Points" NumberOfComponents="3" format="ascii" RangeMin="295.25501862228776" RangeMax="315.1581627751566">
          298.1976 0 0 295.22586 4.1493683 0
          298.1976 4.1493683 0 295.26123 5.805127 0
          298.1976 5.805127 0 295.22586 6.4380794 0
          295.22586 6.4380794 0 295.29663 6.243899 0
          298.1976 6.243899 0 295.26123 7.832195 0
          295.26123 7.832195 0 295.332 6.658472 0
          298.1976 6.658472 0 295.29663 8.684548 0
          295.29663 8.684548 0 295.36737 8.280106 0
          298.1976 8.280106 0 295.332 9.003773 0
          295.332 9.003773 0 295.40277 9.244814 0
          298.1976 9.244814 0 295.36737 10.42808 0
          295.36737 10.42808 0 295.43814 9.692116 0
          298.1976 9.692116 0 295.40277 11.058534 0
          295.40277 11.058534 0 295.4735 10.010857 0
          298.1976 10.010857 0 295.43814 12.129775 0
          295.43814 12.129775 0 295.61502 10.344954 0
          298.1976 10.344954 0 295.4735 11.760067 0
          295.4735 11.760067 0 295.5089 12.26299 0
          295.61502 12.26299 0 295.65042 10.431184 0
          298.1976 10.431184 0 295.54428 12.452481 0
          295.61502 12.452481 0 295.5089 14.530695 0
          295.5089 14.530695 0 295.6858 10.645031 0
          298.1976 10.645031 0 295.65042 14.12002 0
          295.65042 14.12002 0 295.57965 12.593695 0
          295.61502 12.593695 0 295.54428 14.276345 0
          295.54428 14.276345 0 295.72116 10.694428 0
          298.1976 10.694428 0 295.6858 13.558237 0
          295.6858 13.558237 0 295.61502 15.510149 0
          295.61502 15.510149 0 295.57965 14.151228 0
          295.57965 14.151228 0 295.75656 10.921392 0
          298.1976 10.921392 0 295.72116 13.727066 0
          295.72116 13.727066 0 295.79193 11.236405 0
          298.1976 11.236405 0 295.75656 14.451643 0
          295.75656 14.451643 0 295.8627 12.076822 0
          298.1976 12.076822 0 295.79193 12.66661 0
          295.79193 12.66661 0 295.8273 12.823345 0
          295.8627 12.823345 0 295.89807 14.197398 0
          298.1976 14.197398 0 295.8627 19.115791 0
          295.8627 19.115791 0 295.8273 14.406193 0
          295.8273 14.406193 0 295.93344 14.572613 0
          298.1976 14.572613 0 295.89807 15.847382 0
          295.89807 15.847382 0 295.96884 16.365318 0
          298.1976 16.365318 0 295.93344 17.798035 0
          295.93344 17.798035 0 296.0042 16.634865 0
          298.1976 16.634865 0 295.96884 17.952227 0
          295.96884 17.952227 0 296.03958 18.579382 0
          298.1976 18.579382 0 296.0042 19.54868 0
          296.0042 19.54868 0 313.1976 22.84891 0
          298.1976 22.84891 0 296.03958 20.374537 0
          296.03958 20.374537 0 310.91754 25.744606 0
          313.1976 25.744606 0 296.0042 25.37686 0
          298.1976 25.37686 0 313.1976 35.09886 0
          313.1976 35.09886 0 310.91754 32.595592 0
          310.91754 32.595592 0 296.03958 25.729242 0
          298.1976 25.729242 0 296.0042 28.515116 0
          296.0042 28.515116 0 296.0042 34.345997 0
          298.1976 34.345997 0 296.03958 29.017307 0
          296.03958 29.017307 0 296.03958 36.665245 0
          298.1976 36.665245 0 295.96884 35.872723 0
          296.0042 35.872723 0 296.03958 45.277657 0
          298.1976 45.277657 0 296.03958 40.03021 0
          296.03958 40.03021 0 295.96884 39.46533 0
          296.0042 39.46533 0 295.96884 38.160366 0
          295.96884 38.160366 0 296.0042 47.300358 0
          298.1976 47.300358 0 296.03958 46.753002 0
          296.03958 46.753002 0 296.0042 42.116657 0
          296.0042 42.116657 0 295.96884 41.6867 0
          295.96884 41.6867 0 296.03958 47.648525 0
          298.1976 47.648525 0 296.0042 49.039833 0
          296.0042 49.039833 0 296.03958 49.75232 0
          298.1976 49.75232 0 296.03958 49.675346 0
          296.03958 49.675346 0 296.03958 53.493454 0
          298.1976 53.493454 0 296.03958 51.498184 0
          296.03958 51.498184 0 295.96884 64.90024 0
          298.1976 64.90024 0 296.03958 56.381428 0
          296.03958 56.381428 0 296.0042 65.716995 0
          298.1976 65.716995 0 295.96884 66.35559 0
          295.96884 66.35559 0 296.03958 65.93956 0
          298.1976 65.93956 0 296.0042 69.26751 0
          296.0042 69.26751 0 298.1976 70.75895 0
          298.1976 70.75895 0 296.03958 68.684494 0
          296.03958 68.684494 0
          <InformationKey name="L2_NORM_RANGE" location="vtkDataArray" length="2">
            <Value index="0">
              295.25501862
            </Value>
            <Value index="1">
              315.15816278
            </Value>
          </InformationKey>
          <InformationKey name="L2_NORM_FINITE_RANGE" location="vtkDataArray" length="2">
            <Value index="0">
              295.25501862
            </Value>
            <Value index="1">
              315.15816278
            </Value>
          </InformationKey>
        </DataArray>
      </Points>
      <Cells>
        <DataArray type="Int64" Name="connectivity" format="ascii" RangeMin="0" RangeMax="162">
          2 0 4 2 1 2
          6 1 8 4 3 4
          10 3 12 8 7 8
          14 7 16 12 11 12
          18 11 20 16 15 16
          22 15 24 20 19 20
          26 19 28 24 23 24
          30 23 32 28 27 28
          34 27 31 32 36 31
          38 32 40 36 35 36
          42 35 44 38 37 38
          46 37 48 40 39 40
          50 39 52 44 43 44
          54 43 56 48 47 48
          58 47 60 52 51 52
          62 51 64 60 59 60
          66 59 68 64 63 64
          70 63 67 68 72 67
          74 68 76 72 71 72
          78 71 80 74 73 74
          82 73 84 80 79 80
          86 79 88 84 83 84
          90 83 92 88 87 88
          94 87 96 92 91 92
          98 91 95 96 100 95
          102 96 104 100 99 100
          106 99 108 102 101 102
          110 101 112 108 107 108
          114 107 116 112 111 112
          118 111 120 116 115 116
          122 115 124 118 117 118
          126 117 128 120 119 120
          130 119 132 124 123 124
          134 123 136 128 127 128
          138 127 140 136 135 136
          142 135 144 140 139 140
          146 139 148 144 143 144
          150 143 152 148 147 148
          154 147 156 152 151 152
          158 151 160 156 155 156
          162 155
        </DataArray>
        <DataArray type="Int64" Name="offsets" format="ascii" RangeMin="2" RangeMax="242">
          2 4 6 8 10 12
          14 16 18 20 22 24
          26 28 30 32 34 36
          38 40 42 44 46 48
          50 52 54 56 58 60
          62 64 66 68 70 72
          74 76 78 80 82 84
          86 88 90 92 94 96
          98 100 102 104 106 108
          110 112 114 116 118 120
          122 124 126 128 130 132
          134 136 138 140 142 144
          146 148 150 152 154 156
          158 160 162 164 166 168
          170 172 174 176 178 180
          182 184 186 188 190 192
          194 196 198 200 202 204
          206 208 210 212 214 216
          218 220 222 224 226 228
          230 232 234 236 238 240
          242
        </DataArray>
        <DataArray type="UInt8" Name="types" format="ascii" RangeMin="3" RangeMax="3">
          3 3 3 3 3 3
          3 3 3 3 3 3
          3 3 3 3 3 3
          3 3 3 3 3 3
          3 3 3 3 3 3
          3 3 3 3 3 3
          3 3 3 3 3 3
          3 3 3 3 3 3
          3 3 3 3 3 3
          3 3 3 3 3 3
          3 3 3 3 3 3
          3 3 3 3 3 3
          3 3 3 3 3 3
          3 3 3 3 3 3
          3 3 3 3 3 3
          3 3 3 3 3 3
          3 3 3 3 3 3
          3 3 3 3 3 3
          3 3 3 3 3 3
          3 3 3 3 3 3
          3
        </DataArray>
      </Cells>
    </Piece>
  </UnstructuredGrid>
</VTKFile>
