<VTKFile type="UnstructuredGrid" version="1.0" byte_order="LittleEndian" header_type="UInt64">
  <UnstructuredGrid>
    <Piece NumberOfPoints="2800" NumberOfCells="1">
      <PointData Scalars="CriticalType">
        <DataArray type="Int32" Name="NodeId" format="ascii" RangeMin="0" RangeMax="2799">
          0 1 2 3 4 5
          6 7 8 9 10 11
          12 13 14 15 16 17
          18 19 20 21 22 23
          24 25 26 27 28 29
          30 31 32 33 34 35
          36 37 38 39 40 41
          42 43 44 45 46 47
          48 49 50 51 52 53
          54 55 56 57 58 59
          60 61 62 63 64 65
          66 67 68 69 70 71
          72 73 74 75 76 77
          78 79 80 81 82 83
          84 85 86 87 88 89
          90 91 92 93 94 95
          96 97 98 99 100 101
          102 103 104 105 106 107
          108 109 110 111 112 113
          114 115 116 117 118 119
          120 121 122 123 124 125
          126 127 128 129 130 131
          132 133 134 135 136 137
          138 139 140 141 142 143
          144 145 146 147 148 149
          150 151 152 153 154 155
          156 157 158 159 160 161
          162 163 164 165 166 167
          168 169 170 171 172 173
          174 175 176 177 178 179
          180 181 182 183 184 185
          186 187 188 189 190 191
          192 193 194 195 196 197
          198 199 200 201 202 203
          204 205 206 207 208 209
          210 211 212 213 214 215
          216 217 218 219 220 221
          222 223 224 225 226 227
          228 229 230 231 232 233
          234 235 236 237 238 239
          240 241 242 243 244 245
          246 247 248 249 250 251
          252 253 254 255 256 257
          258 259 260 261 262 263
          264 265 266 267 268 269
          270 271 272 273 274 275
          276 277 278 279 280 281
          282 283 284 285 286 287
          288 289 290 291 292 293
          294 295 296 297 298 299
          300 301 302 303 304 305
          306 307 308 309 310 311
          312 313 314 315 316 317
          318 319 320 321 322 323
          324 325 326 327 328 329
          330 331 332 333 334 335
          336 337 338 339 340 341
          342 343 344 345 346 347
          348 349 350 351 352 353
          354 355 356 357 358 359
          360 361 362 363 364 365
          366 367 368 369 370 371
          372 373 374 375 376 377
          378 379 380 381 382 383
          384 385 386 387 388 389
          390 391 392 393 394 395
          396 397 398 399 400 401
          402 403 404 405 406 407
          408 409 410 411 412 413
          414 415 416 417 418 419
          420 421 422 423 424 425
          426 427 428 429 430 431
          432 433 434 435 436 437
          438 439 440 441 442 443
          444 445 446 447 448 449
          450 451 452 453 454 455
          456 457 458 459 460 461
          462 463 464 465 466 467
          468 469 470 471 472 473
          474 475 476 477 478 479
          480 481 482 483 484 485
          486 487 488 489 490 491
          492 493 494 495 496 497
          498 499 500 501 502 503
          504 505 506 507 508 509
          510 511 512 513 514 515
          516 517 518 519 520 521
          522 523 524 525 526 527
          528 529 530 531 532 533
          534 535 536 537 538 539
          540 541 542 543 544 545
          546 547 548 549 550 551
          552 553 554 555 556 557
          558 559 560 561 562 563
          564 565 566 567 568 569
          570 571 572 573 574 575
          576 577 578 579 580 581
          582 583 584 585 586 587
          588 589 590 591 592 593
          594 595 596 597 598 599
          600 601 602 603 604 605
          606 607 608 609 610 611
          612 613 614 615 616 617
          618 619 620 621 622 623
          624 625 626 627 628 629
          630 631 632 633 634 635
          636 637 638 639 640 641
          642 643 644 645 646 647
          648 649 650 651 652 653
          654 655 656 657 658 659
          660 661 662 663 664 665
          666 667 668 669 670 671
          672 673 674 675 676 677
          678 679 680 681 682 683
          684 685 686 687 688 689
          690 691 692 693 694 695
          696 697 698 699 700 701
          702 703 704 705 706 707
          708 709 710 711 712 713
          714 715 716 717 718 719
          720 721 722 723 724 725
          726 727 728 729 730 731
          732 733 734 735 736 737
          738 739 740 741 742 743
          744 745 746 747 748 749
          750 751 752 753 754 755
          756 757 758 759 760 761
          762 763 764 765 766 767
          768 769 770 771 772 773
          774 775 776 777 778 779
          780 781 782 783 784 785
          786 787 788 789 790 791
          792 793 794 795 796 797
          798 799 800 801 802 803
          804 805 806 807 808 809
          810 811 812 813 814 815
          816 817 818 819 820 821
          822 823 824 825 826 827
          828 829 830 831 832 833
          834 835 836 837 838 839
          840 841 842 843 844 845
          846 847 848 849 850 851
          852 853 854 855 856 857
          858 859 860 861 862 863
          864 865 866 867 868 869
          870 871 872 873 874 875
          876 877 878 879 880 881
          882 883 884 885 886 887
          888 889 890 891 892 893
          894 895 896 897 898 899
          900 901 902 903 904 905
          906 907 908 909 910 911
          912 913 914 915 916 917
          918 919 920 921 922 923
          924 925 926 927 928 929
          930 931 932 933 934 935
          936 937 938 939 940 941
          942 943 944 945 946 947
          948 949 950 951 952 953
          954 955 956 957 958 959
          960 961 962 963 964 965
          966 967 968 969 970 971
          972 973 974 975 976 977
          978 979 980 981 982 983
          984 985 986 987 988 989
          990 991 992 993 994 995
          996 997 998 999 1000 1001
          1002 1003 1004 1005 1006 1007
          1008 1009 1010 1011 1012 1013
          1014 1015 1016 1017 1018 1019
          1020 1021 1022 1023 1024 1025
          1026 1027 1028 1029 1030 1031
          1032 1033 1034 1035 1036 1037
          1038 1039 1040 1041 1042 1043
          1044 1045 1046 1047 1048 1049
          1050 1051 1052 1053 1054 1055
          1056 1057 1058 1059 1060 1061
          1062 1063 1064 1065 1066 1067
          1068 1069 1070 1071 1072 1073
          1074 1075 1076 1077 1078 1079
          1080 1081 1082 1083 1084 1085
          1086 1087 1088 1089 1090 1091
          1092 1093 1094 1095 1096 1097
          1098 1099 1100 1101 1102 1103
          1104 1105 1106 1107 1108 1109
          1110 1111 1112 1113 1114 1115
          1116 1117 1118 1119 1120 1121
          1122 1123 1124 1125 1126 1127
          1128 1129 1130 1131 1132 1133
          1134 1135 1136 1137 1138 1139
          1140 1141 1142 1143 1144 1145
          1146 1147 1148 1149 1150 1151
          1152 1153 1154 1155 1156 1157
          1158 1159 1160 1161 1162 1163
          1164 1165 1166 1167 1168 1169
          1170 1171 1172 1173 1174 1175
          1176 1177 1178 1179 1180 1181
          1182 1183 1184 1185 1186 1187
          1188 1189 1190 1191 1192 1193
          1194 1195 1196 1197 1198 1199
          1200 1201 1202 1203 1204 1205
          1206 1207 1208 1209 1210 1211
          1212 1213 1214 1215 1216 1217
          1218 1219 1220 1221 1222 1223
          1224 1225 1226 1227 1228 1229
          1230 1231 1232 1233 1234 1235
          1236 1237 1238 1239 1240 1241
          1242 1243 1244 1245 1246 1247
          1248 1249 1250 1251 1252 1253
          1254 1255 1256 1257 1258 1259
          1260 1261 1262 1263 1264 1265
          1266 1267 1268 1269 1270 1271
          1272 1273 1274 1275 1276 1277
          1278 1279 1280 1281 1282 1283
          1284 1285 1286 1287 1288 1289
          1290 1291 1292 1293 1294 1295
          1296 1297 1298 1299 1300 1301
          1302 1303 1304 1305 1306 1307
          1308 1309 1310 1311 1312 1313
          1314 1315 1316 1317 1318 1319
          1320 1321 1322 1323 1324 1325
          1326 1327 1328 1329 1330 1331
          1332 1333 1334 1335 1336 1337
          1338 1339 1340 1341 1342 1343
          1344 1345 1346 1347 1348 1349
          1350 1351 1352 1353 1354 1355
          1356 1357 1358 1359 1360 1361
          1362 1363 1364 1365 1366 1367
          1368 1369 1370 1371 1372 1373
          1374 1375 1376 1377 1378 1379
          1380 1381 1382 1383 1384 1385
          1386 1387 1388 1389 1390 1391
          1392 1393 1394 1395 1396 1397
          1398 1399 1400 1401 1402 1403
          1404 1405 1406 1407 1408 1409
          1410 1411 1412 1413 1414 1415
          1416 1417 1418 1419 1420 1421
          1422 1423 1424 1425 1426 1427
          1428 1429 1430 1431 1432 1433
          1434 1435 1436 1437 1438 1439
          1440 1441 1442 1443 1444 1445
          1446 1447 1448 1449 1450 1451
          1452 1453 1454 1455 1456 1457
          1458 1459 1460 1461 1462 1463
          1464 1465 1466 1467 1468 1469
          1470 1471 1472 1473 1474 1475
          1476 1477 1478 1479 1480 1481
          1482 1483 1484 1485 1486 1487
          1488 1489 1490 1491 1492 1493
          1494 1495 1496 1497 1498 1499
          1500 1501 1502 1503 1504 1505
          1506 1507 1508 1509 1510 1511
          1512 1513 1514 1515 1516 1517
          1518 1519 1520 1521 1522 1523
          1524 1525 1526 1527 1528 1529
          1530 1531 1532 1533 1534 1535
          1536 1537 1538 1539 1540 1541
          1542 1543 1544 1545 1546 1547
          1548 1549 1550 1551 1552 1553
          1554 1555 1556 1557 1558 1559
          1560 1561 1562 1563 1564 1565
          1566 1567 1568 1569 1570 1571
          1572 1573 1574 1575 1576 1577
          1578 1579 1580 1581 1582 1583
          1584 1585 1586 1587 1588 1589
          1590 1591 1592 1593 1594 1595
          1596 1597 1598 1599 1600 1601
          1602 1603 1604 1605 1606 1607
          1608 1609 1610 1611 1612 1613
          1614 1615 1616 1617 1618 1619
          1620 1621 1622 1623 1624 1625
          1626 1627 1628 1629 1630 1631
          1632 1633 1634 1635 1636 1637
          1638 1639 1640 1641 1642 1643
          1644 1645 1646 1647 1648 1649
          1650 1651 1652 1653 1654 1655
          1656 1657 1658 1659 1660 1661
          1662 1663 1664 1665 1666 1667
          1668 1669 1670 1671 1672 1673
          1674 1675 1676 1677 1678 1679
          1680 1681 1682 1683 1684 1685
          1686 1687 1688 1689 1690 1691
          1692 1693 1694 1695 1696 1697
          1698 1699 1700 1701 1702 1703
          1704 1705 1706 1707 1708 1709
          1710 1711 1712 1713 1714 1715
          1716 1717 1718 1719 1720 1721
          1722 1723 1724 1725 1726 1727
          1728 1729 1730 1731 1732 1733
          1734 1735 1736 1737 1738 1739
          1740 1741 1742 1743 1744 1745
          1746 1747 1748 1749 1750 1751
          1752 1753 1754 1755 1756 1757
          1758 1759 1760 1761 1762 1763
          1764 1765 1766 1767 1768 1769
          1770 1771 1772 1773 1774 1775
          1776 1777 1778 1779 1780 1781
          1782 1783 1784 1785 1786 1787
          1788 1789 1790 1791 1792 1793
          1794 1795 1796 1797 1798 1799
          1800 1801 1802 1803 1804 1805
          1806 1807 1808 1809 1810 1811
          1812 1813 1814 1815 1816 1817
          1818 1819 1820 1821 1822 1823
          1824 1825 1826 1827 1828 1829
          1830 1831 1832 1833 1834 1835
          1836 1837 1838 1839 1840 1841
          1842 1843 1844 1845 1846 1847
          1848 1849 1850 1851 1852 1853
          1854 1855 1856 1857 1858 1859
          1860 1861 1862 1863 1864 1865
          1866 1867 1868 1869 1870 1871
          1872 1873 1874 1875 1876 1877
          1878 1879 1880 1881 1882 1883
          1884 1885 1886 1887 1888 1889
          1890 1891 1892 1893 1894 1895
          1896 1897 1898 1899 1900 1901
          1902 1903 1904 1905 1906 1907
          1908 1909 1910 1911 1912 1913
          1914 1915 1916 1917 1918 1919
          1920 1921 1922 1923 1924 1925
          1926 1927 1928 1929 1930 1931
          1932 1933 1934 1935 1936 1937
          1938 1939 1940 1941 1942 1943
          1944 1945 1946 1947 1948 1949
          1950 1951 1952 1953 1954 1955
          1956 1957 1958 1959 1960 1961
          1962 1963 1964 1965 1966 1967
          1968 1969 1970 1971 1972 1973
          1974 1975 1976 1977 1978 1979
          1980 1981 1982 1983 1984 1985
          1986 1987 1988 1989 1990 1991
          1992 1993 1994 1995 1996 1997
          1998 1999 2000 2001 2002 2003
          2004 2005 2006 2007 2008 2009
          2010 2011 2012 2013 2014 2015
          2016 2017 2018 2019 2020 2021
          2022 2023 2024 2025 2026 2027
          2028 2029 2030 2031 2032 2033
          2034 2035 2036 2037 2038 2039
          2040 2041 2042 2043 2044 2045
          2046 2047 2048 2049 2050 2051
          2052 2053 2054 2055 2056 2057
          2058 2059 2060 2061 2062 2063
          2064 2065 2066 2067 2068 2069
          2070 2071 2072 2073 2074 2075
          2076 2077 2078 2079 2080 2081
          2082 2083 2084 2085 2086 2087
          2088 2089 2090 2091 2092 2093
          2094 2095 2096 2097 2098 2099
          2100 2101 2102 2103 2104 2105
          2106 2107 2108 2109 2110 2111
          2112 2113 2114 2115 2116 2117
          2118 2119 2120 2121 2122 2123
          2124 2125 2126 2127 2128 2129
          2130 2131 2132 2133 2134 2135
          2136 2137 2138 2139 2140 2141
          2142 2143 2144 2145 2146 2147
          2148 2149 2150 2151 2152 2153
          2154 2155 2156 2157 2158 2159
          2160 2161 2162 2163 2164 2165
          2166 2167 2168 2169 2170 2171
          2172 2173 2174 2175 2176 2177
          2178 2179 2180 2181 2182 2183
          2184 2185 2186 2187 2188 2189
          2190 2191 2192 2193 2194 2195
          2196 2197 2198 2199 2200 2201
          2202 2203 2204 2205 2206 2207
          2208 2209 2210 2211 2212 2213
          2214 2215 2216 2217 2218 2219
          2220 2221 2222 2223 2224 2225
          2226 2227 2228 2229 2230 2231
          2232 2233 2234 2235 2236 2237
          2238 2239 2240 2241 2242 2243
          2244 2245 2246 2247 2248 2249
          2250 2251 2252 2253 2254 2255
          2256 2257 2258 2259 2260 2261
          2262 2263 2264 2265 2266 2267
          2268 2269 2270 2271 2272 2273
          2274 2275 2276 2277 2278 2279
          2280 2281 2282 2283 2284 2285
          2286 2287 2288 2289 2290 2291
          2292 2293 2294 2295 2296 2297
          2298 2299 2300 2301 2302 2303
          2304 2305 2306 2307 2308 2309
          2310 2311 2312 2313 2314 2315
          2316 2317 2318 2319 2320 2321
          2322 2323 2324 2325 2326 2327
          2328 2329 2330 2331 2332 2333
          2334 2335 2336 2337 2338 2339
          2340 2341 2342 2343 2344 2345
          2346 2347 2348 2349 2350 2351
          2352 2353 2354 2355 2356 2357
          2358 2359 2360 2361 2362 2363
          2364 2365 2366 2367 2368 2369
          2370 2371 2372 2373 2374 2375
          2376 2377 2378 2379 2380 2381
          2382 2383 2384 2385 2386 2387
          2388 2389 2390 2391 2392 2393
          2394 2395 2396 2397 2398 2399
          2400 2401 2402 2403 2404 2405
          2406 2407 2408 2409 2410 2411
          2412 2413 2414 2415 2416 2417
          2418 2419 2420 2421 2422 2423
          2424 2425 2426 2427 2428 2429
          2430 2431 2432 2433 2434 2435
          2436 2437 2438 2439 2440 2441
          2442 2443 2444 2445 2446 2447
          2448 2449 2450 2451 2452 2453
          2454 2455 2456 2457 2458 2459
          2460 2461 2462 2463 2464 2465
          2466 2467 2468 2469 2470 2471
          2472 2473 2474 2475 2476 2477
          2478 2479 2480 2481 2482 2483
          2484 2485 2486 2487 2488 2489
          2490 2491 2492 2493 2494 2495
          2496 2497 2498 2499 2500 2501
          2502 2503 2504 2505 2506 2507
          2508 2509 2510 2511 2512 2513
          2514 2515 2516 2517 2518 2519
          2520 2521 2522 2523 2524 2525
          2526 2527 2528 2529 2530 2531
          2532 2533 2534 2535 2536 2537
          2538 2539 2540 2541 2542 2543
          2544 2545 2546 2547 2548 2549
          2550 2551 2552 2553 2554 2555
          2556 2557 2558 2559 2560 2561
          2562 2563 2564 2565 2566 2567
          2568 2569 2570 2571 2572 2573
          2574 2575 2576 2577 2578 2579
          2580 2581 2582 2583 2584 2585
          2586 2587 2588 2589 2590 2591
          2592 2593 2594 2595 2596 2597
          2598 2599 2600 2601 2602 2603
          2604 2605 2606 2607 2608 2609
          2610 2611 2612 2613 2614 2615
          2616 2617 2618 2619 2620 2621
          2622 2623 2624 2625 2626 2627
          2628 2629 2630 2631 2632 2633
          2634 2635 2636 2637 2638 2639
          2640 2641 2642 2643 2644 2645
          2646 2647 2648 2649 2650 2651
          2652 2653 2654 2655 2656 2657
          2658 2659 2660 2661 2662 2663
          2664 2665 2666 2667 2668 2669
          2670 2671 2672 2673 2674 2675
          2676 2677 2678 2679 2680 2681
          2682 2683 2684 2685 2686 2687
          2688 2689 2690 2691 2692 2693
          2694 2695 2696 2697 2698 2699
          2700 2701 2702 2703 2704 2705
          2706 2707 2708 2709 2710 2711
          2712 2713 2714 2715 2716 2717
          2718 2719 2720 2721 2722 2723
          2724 2725 2726 2727 2728 2729
          2730 2731 2732 2733 2734 2735
          2736 2737 2738 2739 2740 2741
          2742 2743 2744 2745 2746 2747
          2748 2749 2750 2751 2752 2753
          2754 2755 2756 2757 2758 2759
          2760 2761 2762 2763 2764 2765
          2766 2767 2768 2769 2770 2771
          2772 2773 2774 2775 2776 2777
          2778 2779 2780 2781 2782 2783
          2784 2785 2786 2787 2788 2789
          2790 2791 2792 2793 2794 2795
          2796 2797 2798 2799
        </DataArray>
        <DataArray type="Float32" Name="Scalar" format="ascii" RangeMin="0" RangeMax="70.75894927978516">
          70.75895 69.35766 69.53139 69.26751 65.93956 68.684494
          67.11525 65.93211 66.67013 66.186134 66.35559 64.90024
          66.17029 66.12872 64.9879 63.445614 62.980206 61.880665
          61.503674 61.28492 60.12956 58.71519 58.605495 58.395653
          57.94256 56.381428 54.9982 55.493534 55.15249 54.963608
          54.886215 54.62332 52.38086 51.22916 51.973454 51.498184
          49.75232 50.883358 50.763058 49.67535 47.648525 49.039833
          47.47963 48.677883 48.442657 47.159584 48.08953 46.92683
          46.753002 45.27766 44.69125 44.6437 44.12335 44.099392
          43.950836 43.782524 43.028034 42.52353 42.116657 41.916023
          41.92505 41.786694 41.334743 41.6867 41.02051 41.535442
          41.452675 41.36499 40.91301 40.03021 36.665245 38.160366
          35.872723 36.196754 36.006565 35.519184 35.324783 35.09886
          35.06683 35.081066 33.874012 33.61375 33.61467 33.072155
          33.140656 33.01144 32.595592 25.744606 31.96414 31.23299
          31.934177 31.513025 31.298586 29.017307 25.72924 28.515116
          26.112038 27.129404 27.016102 26.810139 26.53943 25.843117
          25.80558 25.796738 23.471573 22.655436 23.23544 22.848911
          23.185328 22.234945 23.026459 22.103806 22.768915 22.56407
          22.640203 22.631214 22.00058 22.001717 21.761631 21.831392
          20.374537 18.579382 19.54868 19.427187 19.488695 19.115791
          17.87315 18.972527 18.957022 18.925203 18.712503 18.87853
          18.85871 18.871698 18.61162 18.530602 18.518608 18.489485
          18.51063 18.4197 18.340925 18.048027 17.982178 17.997856
          17.975428 17.952225 16.365318 17.87208 17.829382 17.827171
          17.750198 17.798035 16.606594 17.706142 17.14728 17.598179
          16.887373 17.195185 17.138945 16.881144 16.701809 16.688927
          16.627693 16.56453 16.509258 16.249546 16.453608 16.24858
          16.27568 16.235228 16.262957 16.159073 16.176216 15.436381
          15.924784 15.598992 15.847382 15.199346 15.682032 15.589803
          15.529971 15.150389 15.510149 15.394122 15.464007 15.1975765
          15.415892 15.25339 14.977318 14.719925 14.935592 14.5395
          14.84933 14.796796 14.797835 14.5326185 14.784658 14.628406
          14.75908 14.530695 14.351619 14.451643 14.158028 14.439398
          14.43589 14.432005 14.406193 12.823345 14.276345 12.959163
          14.235875 14.151228 12.593695 14.12002 10.621818 13.982699
          13.653234 13.980022 13.852222 13.876616 13.873348 13.753218
          13.105576 13.727066 12.502801 13.562078 13.542397 13.558237
          13.468711 13.518287 13.4058895 13.367322 13.383776 12.484327
          13.3446 13.343323 13.330673 13.321033 13.308827 13.241709
          13.168341 13.142809 13.136345 13.116175 12.528243 13.088321
          12.216709 13.074028 12.732549 12.50225 12.666609 11.236405
          12.568382 12.483353 12.5160055 12.2651005 12.507225 12.337205
          12.503478 12.101647 12.361466 12.354814 12.354549 12.25178
          12.347572 12.148793 12.296126 11.617442 12.240543 12.21506
          12.211888 12.146841 12.090863 12.129775 9.692116 12.113857
          12.105045 12.04513 11.921576 12.034856 11.967185 12.0235195
          11.619767 12.002499 11.036991 11.9822445 11.287043 11.760066
          11.247819 11.710005 11.412692 11.701526 11.683011 11.618263
          11.578566 11.600582 11.4566965 11.529016 11.51298 11.048318
          11.512895 11.497092 11.486124 11.472764 11.452799 11.453842
          11.42308 11.453827 11.425367 11.315655 11.369315 11.357838
          11.358506 11.281247 11.341378 11.30634 11.270358 11.301094
          11.191424 11.292386 11.241569 11.277199 11.235067 11.251506
          11.232647 11.230509 11.192224 11.144825 11.188753 11.134459
          11.166087 10.991915 11.166025 11.1656065 11.153378 11.142085
          11.14898 11.099299 11.109417 11.098625 9.865419 11.073189
          11.049243 11.071183 11.071087 11.06147 11.039716 11.058534
          9.244814 11.049176 11.04272 11.031748 11.038951 11.031403
          11.032168 10.932325 11.0304365 11.029041 11.00091 10.993119
          10.981412 10.891145 10.949945 10.91944 10.906487 10.882129
          10.898731 10.858579 10.854331 10.838098 10.851611 10.830976
          10.778921 10.704649 10.555954 10.70306 9.689229 10.640747
          10.4970875 10.596786 10.571637 10.530749 10.288979 10.515074
          10.476729 10.508499 10.499898 10.42808 10.101404 10.418926
          10.278318 10.398778 10.384105 10.392252 9.239152 10.359142
          10.340066 10.259551 10.240408 10.242132 10.22514 10.2144575
          10.221528 10.214645 10.152364 10.131286 10.084322 10.113934
          9.546439 10.113795 10.025203 10.091841 10.051978 10.076607
          9.944081 10.069527 10.016231 10.056494 10.039535 10.0556755
          9.986909 10.023152 10.011083 9.974409 9.701248 9.893212
          9.873612 9.884209 9.871903 9.882176 9.824175 9.877634
          9.87404 9.871004 9.869888 9.839721 9.830263 9.819987
          9.699743 9.785424 9.76095 9.739024 9.644801 9.721008
          9.708025 9.684879 9.496785 9.633754 9.506844 9.626962
          9.100105 9.607469 9.521764 9.58248 9.492793 9.535955
          9.504405 9.473369 9.496897 9.495509 9.491077 9.488732
          9.478549 9.473187 9.435486 9.369179 9.405046 9.18494
          9.367779 9.183736 9.356703 9.229851 9.324618 8.892073
          9.322043 9.317486 9.321563 9.313978 9.29362 9.306785
          9.158839 9.298899 9.28128 9.2911005 9.284818 9.287011
          9.282647 9.2350235 9.157787 9.215386 9.145316 9.212625
          8.612532 9.199139 9.197173 9.185425 9.144944 9.166092
          9.108226 9.135103 9.011313 9.094553 9.066509 9.054675
          9.032416 8.951549 9.023899 9.003773 8.134891 9.003063
          8.963635 8.964635 8.961668 8.92801 8.909311 8.91132
          8.771033 8.889385 8.680032 8.855796 8.823752 8.855529
          8.775169 8.832201 8.824751 8.774347 8.619601 8.770192
          8.74807 8.763539 8.47229 8.714992 8.580291 8.689831
          8.627639 8.684548 8.0645895 8.677842 8.566457 8.6690645
          8.597065 8.666508 8.66248 8.649743 8.525423 8.593319
          8.571091 8.591238 8.417967 8.583397 8.354639 8.581691
          8.397274 8.545786 8.537918 8.51191 8.42447 8.504833
          8.38201 8.488885 7.970035 8.481598 8.247347 8.459823
          8.261228 8.445175 8.437338 8.416194 8.403334 8.234285
          8.401188 8.386656 8.387162 8.295954 8.373577 8.354131
          8.271651 8.345629 8.33091 8.341327 8.335627 8.264579
          8.328903 7.841258 8.303472 8.2444315 8.296235 7.827133
          8.290829 8.288157 8.285909 8.166259 8.28415 8.226956
          8.280274 7.834287 8.265623 7.746721 8.223408 7.9231577
          8.2114935 8.210694 8.179189 7.7961116 8.127486 8.116886
          8.051477 8.096939 8.062593 8.094454 8.08238 8.069525
          7.7354703 8.048706 7.6931357 7.952138 7.7913837 7.9521046
          7.303767 7.941226 7.1579857 7.8717184 7.829851 7.8321943
          5.805127 7.826703 7.8193703 7.82009 7.229034 7.7919335
          7.7860484 7.764517 7.761538 7.749323 7.753436 7.5358577
          7.696076 7.517549 7.6751003 7.654009 7.6722217 7.3851724
          7.6599007 7.5665774 7.653753 7.64931 7.6306763 7.631136
          7.1142397 7.622709 7.407483 7.5892944 7.5671754 7.5396733
          7.4094296 7.5135446 7.4374585 7.4882364 7.1574883 7.3826118
          7.192732 7.3181477 7.313075 7.309573 7.069489 7.281793
          7.146345 7.265949 7.2623096 7.1928935 7.1569347 7.191063
          7.1555576 7.1832266 7.182624 7.115506 6.949239 7.079523
          7.0142584 7.0624948 7.052089 7.0612874 6.514371 7.058893
          6.9246645 7.037079 6.7474637 7.036298 6.973784 7.0110393
          6.871386 6.9926066 6.728962 6.9884524 6.429881 6.962177
          6.664515 6.930183 6.8832874 6.904833 6.862155 6.9035707
          6.837442 6.8814025 6.68498 6.879664 6.5138917 6.8556013
          6.8471613 6.396892 6.8437552 6.6706634 6.8322196 6.815548
          6.830571 6.5276933 6.826235 6.6674523 6.779508 6.7374988
          6.681247 6.7336535 6.724621 6.73123 6.6138525 6.730013
          6.5726433 6.7202926 6.658534 6.7078547 6.6786995 6.6911273
          6.347454 6.681786 6.6584716 6.6735516 6.648409 6.664122
          6.641448 6.603732 6.631953 6.5324683 6.6249795 6.416584
          6.6173706 6.5655117 6.6043706 6.6011314 6.594489 6.5893283
          6.5576434 6.528743 6.5429835 6.088597 6.5295024 6.526251
          6.520814 6.4083824 6.515781 6.357402 6.5045753 6.4704943
          6.4929748 6.313289 6.491312 6.468714 6.4505973 6.3110614
          6.438744 6.3398814 6.4380794 4.1493683 6.423466 6.409981
          6.373602 6.212904 6.364237 5.9726124 6.3495374 6.3412576
          6.3378005 6.3324103 6.324797 6.3153796 6.221471 6.308291
          5.94364 6.3060765 6.1976843 6.299121 6.1854205 6.2957454
          6.1180778 6.2621393 6.2537265 6.2283425 6.2503037 6.2479687
          6.232883 6.173946 6.2123046 6.186356 6.183862 5.99684
          6.1770325 6.139636 6.160002 6.0150948 6.149417 6.135286
          6.137924 6.106057 6.1138644 6.112862 6.1032715 5.74553
          6.095629 6.0902925 6.0911303 6.084252 6.038413 5.5446434
          6.017926 5.902454 6.0095267 5.65781 6.0056887 5.944195
          5.9955397 5.7964754 5.9755807 5.9715323 5.9217944 5.839721
          5.90027 5.8415823 5.8967447 5.7181206 5.893666 5.8742385
          5.8932767 5.792109 5.8912506 5.865257 5.745665 5.847175
          5.828675 5.847072 5.646631 5.8031106 5.8012576 5.797005
          5.3197465 5.7782874 5.5948706 5.761795 5.6886816 5.734579
          5.7111835 5.719376 5.713673 5.7100677 5.5856285 5.667516
          5.6484895 5.5863132 5.6318645 5.5768447 5.6164265 5.571824
          5.5952945 5.5896244 5.592316 4.661156 5.5809035 4.854943
          5.551031 5.514721 5.5281982 5.516958 5.5190773 5.4462485
          5.515032 5.4674664 5.505516 5.48541 5.343309 5.244997
          5.3283134 5.1721067 5.3184705 5.176888 5.2932014 4.211678
          5.277722 5.2733345 5.158628 5.094054 5.147499 5.0385537
          5.1401353 5.0569053 5.1116376 5.070683 4.9995804 4.929975
          4.9934688 4.979647 4.987045 4.9585767 4.9101243 4.899962
          4.8971615 4.848024 4.8929234 4.8409925 4.862214 4.7849126
          4.8236427 4.8139477 4.815894 4.3788066 4.722847 4.7201242
          4.589025 4.5826354 4.412639 3.935636 4.371733 4.364441
          4.2473645 4.2455997 4.154628 4.1521187 4.055487 4.0197535
          3.9767344 3.90652 3.8868337 3.8534 3.5119164 3.2048106
          3.408913 3.1417875 3.3866904 3.1986744 3.3509748 3.2563014
          3.150913 3.1350152 2.7760386 3.0778484 3.0270958 3.0669332
          2.7317626 3.0591912 2.952481 3.0080423 2.7512236 2.9956477
          2.992653 2.9779522 2.97768 2.964238 2.951254 2.926202
          2.9085548 2.886038 2.8842437 2.865816 2.8483572 2.8446283
          2.710605 2.748 2.725806 2.704841 2.6788077 2.6709402
          2.6197197 2.656889 2.613873 2.6154704 2.6001015 2.4402394
          2.56048 2.532241 2.4866195 2.369989 2.469031 2.4078476
          2.212026 2.185018 2.1930447 2.0815632 2.180581 2.0520053
          2.1792767 2.173867 2.1252422 2.1171637 2.1252024 2.0188925
          2.1174548 1.694527 2.1161466 2.1057737 2.1000817 2.0660148
          1.9566344 2.0301218 1.8355405 2.0206704 1.9995784 1.9980414
          1.9580913 1.9036804 1.7668227 1.9022423 1.793214 1.8892033
          1.8760196 1.8308645 1.8188349 1.7821572 1.7931193 1.7176023
          1.7889833 1.7036371 1.7640208 1.751665 1.7138815 1.6721158
          1.6983879 1.5796353 1.6682336 1.5983828 1.633591 1.5912924
          1.5550777 1.4842798 1.5482601 1.5393298 1.5040319 1.4714673
          1.4909837 1.4853852 1.4526254 1.4301323 1.4327601 1.3578761
          1.4232322 1.4165484 1.4073904 1.3359789 1.3828403 1.3541018
          1.3747559 1.2119683 1.3704879 1.3373747 1.3588433 1.3445553
          1.3471323 1.3308891 1.3340673 1.3211198 1.308743 1.2801306