<VTKFile type="UnstructuredGrid" version="1.0" byte_order="LittleEndian" header_type="UInt64">
  <UnstructuredGrid>
    <FieldData>
      <DataArray type="Float64" Name="ClusterID" NumberOfTuples="1" format="ascii" RangeMin="0" RangeMax="0">
        0
      </DataArray>
      <DataArray type="Float64" Name="TimeStep" NumberOfTuples="1" format="ascii" RangeMin="3" RangeMax="3">
        3
      </DataArray>
    </FieldData>
    <Piece NumberOfPoints="2269" NumberOfCells="0">
      <PointData>
        <DataArray type="Int32" Name="NodeId" format="ascii" RangeMin="0" RangeMax="2268">
          0 2 2 4 4 6
          6 8 8 10 10 12
          12 14 14 16 16 18
          18 20 20 22 22 24
          24 26 26 28 28 30
          30 32 32 34 34 36
          36 38 38 40 40 42
          42 44 44 46 46 48
          48 50 50 52 52 54
          54 56 56 58 58 60
          60 62 62 64 64 66
          66 68 68 70 70 72
          72 74 74 76 76 78
          78 80 80 82 82 84
          84 86 86 88 88 90
          90 92 92 94 94 96
          96 98 98 100 100 102
          102 104 104 106 106 108
          108 110 110 112 112 114
          114 116 116 118 118 120
          120 122 122 124 124 126
          126 128 128 130 130 132
          132 134 134 136 136 138
          138 140 140 142 142 144
          144 146 146 148 148 150
          150 152 152 154 154 156
          156 158 158 160 160 162
          162 164 164 166 166 168
          168 170 170 172 172 174
          174 176 176 178 178 180
          180 182 182 184 184 186
          186 188 188 190 190 192
          192 194 194 196 196 198
          198 200 200 202 202 204
          204 206 206 208 208 210
          210 212 212 214 214 216
          216 218 218 220 220 222
          222 224 224 226 226 228
          228 230 230 232 232 234
          234 236 236 238 238 240
          240 242 242 244 244 246
          246 248 248 250 250 252
          252 254 254 256 256 258
          258 260 260 262 262 264
          264 266 266 268 268 270
          270 272 272 274 274 276
          276 278 278 280 280 282
          282 284 284 286 286 288
          288 290 290 292 292 294
          294 296 296 298 298 300
          300 302 302 304 304 306
          306 308 308 310 310 312
          312 314 314 316 316 318
          318 320 320 322 322 324
          324 326 326 328 328 330
          330 332 332 334 334 336
          336 338 338 340 340 342
          342 344 344 346 346 348
          348 350 350 352 352 354
          354 356 356 358 358 360
          360 362 362 364 364 366
          366 368 368 370 370 372
          372 374 374 376 376 378
          378 380 380 382 382 384
          384 386 386 388 388 390
          390 392 392 394 394 396
          396 398 398 400 400 402
          402 404 404 406 406 408
          408 410 410 412 412 414
          414 416 416 418 418 420
          420 422 422 424 424 426
          426 428 428 430 430 432
          432 434 434 436 436 438
          438 440 440 442 442 444
          444 446 446 448 448 450
          450 452 452 454 454 456
          456 458 458 460 460 462
          462 464 464 466 466 468
          468 470 470 472 472 474
          474 476 476 478 478 480
          480 482 482 484 484 486
          486 488 488 490 490 492
          492 494 494 496 496 498
          498 500 500 502 502 504
          504 506 506 508 508 510
          510 512 512 514 514 516
          516 518 518 520 520 522
          522 524 524 526 526 528
          528 530 530 532 532 534
          534 536 536 538 538 540
          540 542 542 544 544 546
          546 548 548 550 550 552
          552 554 554 556 556 558
          558 560 560 562 562 564
          564 566 566 568 568 570
          570 572 572 574 574 576
          576 578 578 580 580 582
          582 584 584 586 586 588
          588 590 590 592 592 594
          594 596 596 598 598 600
          600 602 602 604 604 606
          606 608 608 610 610 612
          612 614 614 616 616 618
          618 620 620 622 622 624
          624 626 626 628 628 630
          630 632 632 634 634 636
          636 638 638 640 640 642
          642 644 644 646 646 648
          648 650 650 652 652 654
          654 656 656 658 658 660
          660 662 662 664 664 666
          666 668 668 670 670 672
          672 674 674 676 676 678
          678 680 680 682 682 684
          684 686 686 688 688 690
          690 692 692 694 694 696
          696 698 698 700 700 702
          702 704 704 706 706 708
          708 710 710 712 712 714
          714 716 716 718 718 720
          720 722 722 724 724 726
          726 728 728 730 730 732
          732 734 734 736 736 738
          738 740 740 742 742 744
          744 746 746 748 748 750
          750 752 752 754 754 756
          756 758 758 760 760 762
          762 764 764 766 766 768
          768 770 770 772 772 774
          774 776 776 778 778 780
          780 782 782 784 784 786
          786 788 788 790 790 792
          792 794 794 796 796 798
          798 800 800 802 802 804
          804 806 806 808 808 810
          810 812 812 814 814 816
          816 818 818 820 820 822
          822 824 824 826 826 828
          828 830 830 832 832 834
          834 836 836 838 838 840
          840 842 842 844 844 846
          846 848 848 850 850 852
          852 854 854 856 856 858
          858 860 860 862 862 864
          864 866 866 868 868 870
          870 872 872 874 874 876
          876 878 878 880 880 882
          882 884 884 886 886 888
          888 890 890 892 892 894
          894 896 896 898 898 900
          900 902 902 904 904 906
          906 908 908 910 910 912
          912 914 914 916 916 918
          918 920 920 922 922 924
          924 926 926 928 928 930
          930 932 932 934 934 936
          936 938 938 940 940 942
          942 944 944 946 946 948
          948 950 950 952 952 954
          954 956 956 958 958 960
          960 962 962 964 964 966
          966 968 968 970 970 972
          972 974 974 976 976 978
          978 980 980 982 982 984
          984 986 986 988 988 990
          990 992 992 994 994 996
          996 998 998 1000 1000 1002
          1002 1004 1004 1006 1006 1008
          1008 1010 1010 1012 1012 1014
          1014 1016 1016 1018 1018 1020
          1020 1022 1022 1024 1024 1026
          1026 1028 1028 1030 1030 1032
          1032 1034 1034 1036 1036 1038
          1038 1040 1040 1042 1042 1044
          1044 1046 1046 1048 1048 1050
          1050 1052 1052 1054 1054 1056
          1056 1058 1058 1060 1060 1062
          1062 1064 1064 1066 1066 1068
          1068 1070 1070 1072 1072 1074
          1074 1076 1076 1078 1078 1080
          1080 1082 1082 1084 1084 1086
          1086 1088 1088 1090 1090 1092
          1092 1094 1094 1096 1096 1098
          1098 1100 1100 1102 1102 1104
          1104 1106 1106 1108 1108 1110
          1110 1112 1112 1114 1114 1116
          1116 1118 1118 1120 1120 1122
          1122 1124 1124 1126 1126 1128
          1128 1130 1130 1132 1132 1134
          1134 1136 1136 1138 1138 1140
          1140 1142 1142 1144 1144 1146
          1146 1148 1148 1150 1150 1152
          1152 1154 1154 1156 1156 1158
          1158 1160 1160 1162 1162 1164
          1164 1166 1166 1168 1168 1170
          1170 1172 1172 1174 1174 1176
          1176 1178 1178 1180 1180 1182
          1182 1184 1184 1186 1186 1188
          1188 1190 1190 1192 1192 1194
          1194 1196 1196 1198 1198 1200
          1200 1202 1202 1204 1204 1206
          1206 1208 1208 1210 1210 1212
          1212 1214 1214 1216 1216 1218
          1218 1220 1220 1222 1222 1224
          1224 1226 1226 1228 1228 1230
          1230 1232 1232 1234 1234 1236
          1236 1238 1238 1240 1240 1242
          1242 1244 1244 1246 1246 1248
          1248 1250 1250 1252 1252 1254
          1254 1256 1256 1258 1258 1260
          1260 1262 1262 1264 1264 1266
          1266 1268 1268 1270 1270 1272
          1272 1274 1274 1276 1276 1278
          1278 1280 1280 1282 1282 1284
          1284 1286 1286 1288 1288 1290
          1290 1292 1292 1294 1294 1296
          1296 1298 1298 1300 1300 1302
          1302 1304 1304 1306 1306 1308
          1308 1310 1310 1312 1312 1314
          1314 1316 1316 1318 1318 1320
          1320 1322 1322 1324 1324 1326
          1326 1328 1328 1330 1330 1332
          1332 1334 1334 1336 1336 1338
          1338 1340 1340 1342 1342 1344
          1344 1346 1346 1348 1348 1350
          1350 1352 1352 1354 1354 1356
          1356 1358 1358 1360 1360 1362
          1362 1364 1364 1366 1366 1368
          1368 1370 1370 1372 1372 1374
          1374 1376 1376 1378 1378 1380
          1380 1382 1382 1384 1384 1386
          1386 1388 1388 1390 1390 1392
          1392 1394 1394 1396 1396 1398
          1398 1400 1400 1402 1402 1404
          1404 1406 1406 1408 1408 1410
          1410 1412 1412 1414 1414 1416
          1416 1418 1418 1420 1420 1422
          1422 1424 1424 1426 1426 1428
          1428 1430 1430 1432 1432 1434
          1434 1436 1436 1438 1438 1440
          1440 1442 1442 1444 1444 1446
          1446 1448 1448 1450 1450 1452
          1452 1454 1454 1456 1456 1458
          1458 1460 1460 1462 1462 1464
          1464 1466 1466 1468 1468 1470
          1470 1472 1472 1474 1474 1476
          1476 1478 1478 1480 1480 1482
          1482 1484 1484 1486 1486 1488
          1488 1490 1490 1492 1492 1494
          1494 1496 1496 1498 1498 1500
          1500 1502 1502 1504 1504 1506
          1506 1508 1508 1510 1510 1512
          1512 1514 1514 1516 1516 1518
          1518 1520 1520 1522 1522 1524
          1524 1526 1526 1528 1528 1530
          1530 1532 1532 1534 1534 1536
          1536 1538 1538 1540 1540 1542
          1542 1544 1544 1546 1546 1548
          1548 1550 1550 1552 1552 1554
          1554 1556 1556 1558 1558 1560
          1560 1562 1562 1564 1564 1566
          1566 1568 1568 1570 1570 1572
          1572 1574 1574 1576 1576 1578
          1578 1580 1580 1582 1582 1584
          1584 1586 1586 1588 1588 1590
          1590 1592 1592 1594 1594 1596
          1596 1598 1598 1600 1600 1602
          1602 1604 1604 1606 1606 1608
          1608 1610 1610 1612 1612 1614
          1614 1616 1616 1618 1618 1620
          1620 1622 1622 1624 1624 1626
          1626 1628 1628 1630 1630 1632
          1632 1634 1634 1636 1636 1638
          1638 1640 1640 1642 1642 1644
          1644 1646 1646 1648 1648 1650
          1650 1652 1652 1654 1654 1656
          1656 1658 1658 1660 1660 1662
          1662 1664 1664 1666 1666 1668
          1668 1670 1670 1672 1672 1674
          1674 1676 1676 1678 1678 1680
          1680 1682 1682 1684 1684 1686
          1686 1688 1688 1690 1690 1692
          1692 1694 1694 1696 1696 1698
          1698 1700 1700 1702 1702 1704
          1704 1706 1706 1708 1708 1710
          1710 1712 1712 1714 1714 1716
          1716 1718 1718 1720 1720 1722
          1722 1724 1724 1726 1726 1728
          1728 1730 1730 1732 1732 1734
          1734 1736 1736 1738 1738 1740
          1740 1742 1742 1744 1744 1746
          1746 1748 1748 1750 1750 1752
          1752 1754 1754 1756 1756 1758
          1758 1760 1760 1762 1762 1764
          1764 1766 1766 1768 1768 1770
          1770 1772 1772 1774 1774 1776
          1776 1778 1778 1780 1780 1782
          1782 1784 1784 1786 1786 1788
          1788 1790 1790 1792 1792 1794
          1794 1796 1796 1798 1798 1800
          1800 1802 1802 1804 1804 1806
          1806 1808 1808 1810 1810 1812
          1812 1814 1814 1816 1816 1818
          1818 1820 1820 1822 1822 1824
          1824 1826 1826 1828 1828 1830
          1830 1832 1832 1834 1834 1836
          1836 1838 1838 1840 1840 1842
          1842 1844 1844 1846 1846 1848
          1848 1850 1850 1852 1852 1854
          1854 1856 1856 1858 1858 1860
          1860 1862 1862 1864 1864 1866
          1866 1868 1868 1870 1870 1872
          1872 1874 1874 1876 1876 1878
          1878 1880 1880 1882 1882 1884
          1884 1886 1886 1888 1888 1890
          1890 1892 1892 1894 1894 1896
          1896 1898 1898 1900 1900 1902
          1902 1904 1904 1906 1906 1908
          1908 1910 1910 1912 1912 1914
          1914 1916 1916 1918 1918 1920
          1920 1922 1922 1924 1924 1926
          1926 1928 1928 1930 1930 1932
          1932 1934 1934 1936 1936 1938
          1938 1940 1940 1942 1942 1944
          1944 1946 1946 1948 1948 1950
          1950 1952 1952 1954 1954 1956
          1956 1958 1958 1960 1960 1962
          1962 1964 1964 1966 1966 1968
          1968 1970 1970 1972 1972 1974
          1974 1976 1976 1978 1978 1980
          1980 1982 1982 1984 1984 1986
          1986 1988 1988 1990 1990 1992
          1992 1994 1994 1996 1996 1998
          1998 2000 2000 2002 2002 2004
          2004 2006 2006 2008 2008 2010
          2010 2012 2012 2014 2014 2016
          2016 2018 2018 2020 2020 2022
          2022 2024 2024 2026 2026 2028
          2028 2030 2030 2032 2032 2034
          2034 2036 2036 2038 2038 2040
          2040 2042 2042 2044 2044 2046
          2046 2048 2048 2050 2050 2052
          2052 2054 2054 2056 2056 2058
          2058 2060 2060 2062 2062 2064
          2064 2066 2066 2068 2068 2070
          2070 2072 2072 2074 2074 2076
          2076 2078 2078 2080 2080 2082
          2082 2084 2084 2086 2086 2088
          2088 2090 2090 2092 2092 2094
          2094 2096 2096 2098 2098 2100
          2100 2102 2102 2104 2104 2106
          2106 2108 2108 2110 2110 2112
          2112 2114 2114 2116 2116 2118
          2118 2120 2120 2122 2122 2124
          2124 2126 2126 2128 2128 2130
          2130 2132 2132 2134 2134 2136
          2136 2138 2138 2140 2140 2142
          2142 2144 2144 2146 2146 2148
          2148 2150 2150 2152 2152 2154
          2154 2156 2156 2158 2158 2160
          2160 2162 2162 2164 2164 2166
          2166 2168 2168 2170 2170 2172
          2172 2174 2174 2176 2176 2178
          2178 2180 2180 2182 2182 2184
          2184 2186 2186 2188 2188 2190
          2190 2192 2192 2194 2194 2196
          2196 2198 2198 2200 2200 2202
          2202 2204 2204 2206 2206 2208
          2208 2210 2210 2212 2212 2214
          2214 2216 2216 2218 2218 2220
          2220 2222 2222 2224 2224 2226
          2226 2228 2228 2230 2230 2232
          2232 2234 2234 2236 2236 2238
          2238 2240 2240 2242 2242 2244
          2244 2246 2246 2248 2248 2250
          2250 2252 2252 2254 2254 2256
          2256 2258 2258 2260 2260 2262
          2262 2264 2264 2266 2266 2268
          2268
        </DataArray>
        <DataArray type="Float32" Name="Scalar" format="ascii" RangeMin="0" RangeMax="70.75894927978516">
          0 0.335739 0.335739 0.47931233 0.47931233 0.33920565
          0.33920565 1.2119683 1.2119683 0.49951902 0.49951902 1.231539
          1.231539 1.3747559 1.3747559 1.2801306 1.2801306 1.2601413
          1.2601413 1.3211198 1.3211198 1.308743 1.308743 1.3308891
          1.3308891 1.3340673 1.3340673 1.3359789 1.3359789 1.3471323
          1.3471323 1.3373747 1.3373747 1.4073904 1.4073904 1.3445553
          1.3445553 1.3704879 1.3704879 1.3541018 1.3541018 1.3588433
          1.3588433 1.3578761 1.3578761 1.3828403 1.3828403 1.4165484
          1.4165484 1.4327601 1.4327601 1.4301323 1.4301323 1.4232322
          1.4232322 1.4714673 1.4714673 1.4526254 1.4526254 1.4842798
          1.4842798 1.5040319 1.5040319 1.4853852 1.4853852 1.5550777
          1.5550777 1.5393298 1.5393298 1.4909837 1.4909837 1.5796353
          1.5796353 1.5482601 1.5482601 1.5912924 1.5912924 1.6983879
          1.6983879 1.5983828 1.5983828 1.633591 1.633591 1.6721158
          1.6721158 1.6682336 1.6682336 1.694527 1.694527 1.7138815
          1.7138815 1.7036371 1.7036371 2.1174548 2.1174548 1.7176023
          1.7176023 1.7889833 1.7889833 1.751665 1.751665 1.7931193
          1.7931193 1.758131 1.758131 1.7640208 1.7640208 1.7668227
          1.7668227 1.9036804 1.9036804 1.7821572 1.7821572 1.9022423
          1.9022423 1.793214 1.793214 1.8188349 1.8188349 1.8355405
          1.8355405 1.8308645 1.8308645 1.872457 1.872457 2.0301218
          2.0301218 1.8760196 1.8760196 2.180581 2.180581 1.9566344
          1.9566344 1.8892033 1.8892033 1.9580913 1.9580913 2.0660148
          2.0660148 1.9995784 1.9995784 1.9980414 1.9980414 2.0188925
          2.0188925 2.0206704 2.0206704 2.0520053 2.0520053 2.1252024
          2.1252024 2.0815632 2.0815632 2.1161466 2.1161466 2.1000817
          2.1000817 2.1930447 2.1930447 2.1171637 2.1171637 2.1057737
          2.1057737 2.173867 2.173867 2.1252422 2.1252422 2.185018
          2.185018 2.1792767 2.1792767 2.369989 2.369989 2.212026
          2.212026 2.4078476 2.4078476 2.4866195 2.4866195 2.4402394
          2.4402394 2.469031 2.469031 2.532241 2.532241 2.6001015
          2.6001015 2.594447 2.594447 2.56048 2.56048 2.613873
          2.613873 2.656889 2.656889 2.6197197 2.6197197 2.6154704
          2.6154704 2.6788077 2.6788077 2.6709402 2.6709402 2.710605
          2.710605 2.704841 2.704841 2.725806 2.725806 2.8446283
          2.8446283 2.7317626 2.7317626 2.748 2.748 2.7512236
          2.7512236 3.0669332 3.0669332 2.7760386 2.7760386 3.0080423
          3.0080423 2.8483572 2.8483572 3.1350152 3.1350152 2.8842437
          2.8842437 2.865816 2.865816 2.9085548 2.9085548 2.886038
          2.886038 2.951254 2.951254 2.926202 2.926202 2.952481
          2.952481 2.964238 2.964238 2.97768 2.97768 3.0591912
          3.0591912 2.992653 2.992653 2.9779522 2.9779522 3.0270958
          3.0270958 2.9956477 2.9956477 3.1417875 3.1417875 3.0778484
          3.0778484 3.150913 3.150913 3.408913 3.408913 3.1940045
          3.1940045 3.2563014 3.2563014 3.1986744 3.1986744 3.5119164
          3.5119164 3.2048106 3.2048106 3.3866904 3.3866904 3.8534
          3.8534 3.3509748 3.3509748 3.90652 3.90652 3.8868337
          3.8868337 3.935636 3.935636 3.9767344 3.9767344 4.0197535
          4.0197535 4.412639 4.412639 4.1493683 4.1493683 4.055487
          4.055487 4.1521187 4.1521187 6.4380794 6.4380794 4.211678
          4.211678 4.154628 4.154628 4.2455997 4.2455997 5.2932014
          5.2932014 4.364441 4.364441 4.2473645 4.2473645 4.3788066
          4.3788066 4.371733 4.371733 4.5826354 4.5826354 4.815894
          4.815894 4.661156 4.661156 4.589025 4.589025 4.7201242
          4.7201242 5.592316 5.592316 4.7849126 4.7849126 4.722847
          4.722847 4.8139477 4.8139477 4.862214 4.862214 4.8409925
          4.8409925 4.8236427 4.8236427 4.848024 4.848024 4.8929234
          4.8929234 4.854943 4.854943 4.8971615 4.8971615 4.899962
          4.899962 5.5809035 5.5809035 4.929975 4.929975 4.9101243
          4.9101243 4.9585767 4.9585767 4.9995804 4.9995804 4.979647
          4.979647 4.987045 4.987045 5.0385537 5.0385537 4.9934688
          4.9934688 5.0569053 5.0569053 5.147499 5.147499 5.070683
          5.070683 5.1401353 5.1401353 5.094054 5.094054 5.1116376
          5.1116376 5.1721067 5.1721067 5.158628 5.158628 5.176888
          5.176888 5.3283134 5.3283134 5.244997 5.244997 5.3184705
          5.3184705 5.2733345 5.2733345 5.343309 5.343309 5.3197465
          5.3197465 5.277722 5.277722 5.4462485 5.4462485 5.797005
          5.797005 5.4674664 5.4674664 5.5190773 5.5190773 5.48541
          5.48541 5.515032 5.515032 5.514721 5.514721 5.505516
          5.505516 5.516958 5.516958 5.551031 5.551031 5.5446434
          5.5446434 5.5281982 5.5281982 5.566692 5.566692 6.038413
          6.038413 5.571824 5.571824 5.847072 5.847072 5.5768447
          5.5768447 5.6164265 5.6164265 5.5856285 5.5856285 5.6318645
          5.6318645 5.5863132 5.5863132 5.7100677 5.7100677 5.5896244
          5.5896244 5.6484895 5.6484895 5.5948706 5.5948706 5.5952945
          5.5952945 5.646631 5.646631 5.7782874 5.7782874 5.65781
          5.65781 5.667516 5.667516 5.6826663 5.6826663 6.0095267
          6.0095267 5.6886816 5.6886816 5.9217944 5.9217944 5.7111835
          5.7111835 5.761795 5.761795 5.713673 5.713673 5.734579
          5.734579 5.7181206 5.7181206 5.719376 5.719376 5.74553
          5.74553 5.8967447 5.8967447 5.745665 5.745665 6.1032715
          6.1032715 5.792109 5.792109 5.865257 5.865257 5.7964754
          5.7964754 5.8932767 5.8932767 5.8012576 5.8012576 5.9955397
          5.9955397 5.805127 5.805127 5.8031106 5.8031106 5.828675
          5.828675 7.8321943 7.8321943 5.839721 5.839721 5.847175
          5.847175 5.8415823 5.8415823 5.90027 5.90027 5.8742385
          5.8742385 5.8912506 5.8912506 5.902454 5.902454 5.893666
          5.893666 5.94364 5.94364 6.017926 6.017926 5.944195
          5.944195 6.308291 6.308291 5.9715323 5.9715323 6.0056887
          6.0056887 5.9726124 5.9726124 5.9755807 5.9755807 5.99684
          5.99684 6.364237 6.364237 6.0150948 6.0150948 6.183862
          6.183862 6.0813494 6.0813494 6.160002 6.160002 6.084252
          6.084252 6.879664 6.879664 6.088597 6.088597 6.0911303
          6.0911303 6.0902925 6.0902925 6.5429835 6.5429835 6.106057
          6.106057 6.095629 6.095629 6.112862 6.112862 6.137924
          6.137924 6.1153884 6.1153884 6.1138644 6.1138644 6.1180778
          6.1180778 6.2957454 6.2957454 6.135286 6.135286 6.2621393
          6.2621393 6.1357937 6.1357937 6.149417 6.149417 6.5276933
          6.5276933 6.139636 6.139636 6.830571 6.830571 6.779508
          6.779508 6.173946 6.173946 6.1770325 6.1770325 6.1854205
          6.1854205 6.232883 6.232883 6.186356 6.186356 6.299121
          6.299121 6.1976843 6.1976843 6.2123046 6.2123046 6.212904
          6.212904 6.3060765 6.3060765 6.221471 6.221471 6.373602
          6.373602 6.2283425 6.2283425 6.3153796 6.3153796 6.243899
          6.243899 6.2537265 6.2537265 8.0645895 8.0645895 6.2479687
          6.2479687 8.684548 8.684548 8.127486 8.127486 6.264941
          6.264941 6.2503037 6.2503037 6.3110614 6.3110614 6.4929748
          6.4929748 6.313289 6.313289 6.4505973 6.4505973 6.324797
          6.324797 6.3495374 6.3495374 6.3378005 6.3378005 6.3324103
          6.3324103 6.3398814 6.3398814 6.3412576 6.3412576 6.347454
          6.347454 6.438744 6.438744 6.357402 6.357402 6.6911273
          6.6911273 6.3681984 6.3681984 6.515781 6.515781 6.3828793
          6.3828793 6.6249795 6.6249795 6.396892 6.396892 6.520814
          6.520814 6.4083824 6.4083824 6.8471613 6.8471613 6.409981
          6.409981 6.491312 6.491312 6.416584 6.416584 6.423466
          6.423466 6.429881 6.429881 6.468714 6.468714 6.4704943
          6.4704943 6.9884524 6.9884524 6.5138917 6.5138917 6.5045753
          6.5045753 6.514371 6.514371 6.8556013 6.8556013 6.526251
          6.526251 7.0612874 7.0612874 6.528743 6.528743 6.5295024
          6.5295024 6.5324683 6.5324683 6.5576434 6.5576434 6.534248
          6.534248 6.631953 6.631953 6.5655117 6.5655117 6.7202926
          6.7202926 6.5726433 6.5726433 6.6173706 6.6173706 6.5893283
          6.5893283 6.730013 6.730013 6.6011314 6.6011314 6.594489
          6.594489 6.603732 6.603732 6.6043706 6.6043706 6.6138525
          6.6138525 6.641448 6.641448 6.648409 6.648409 6.73123
          6.73123 6.6584716 6.6584716 6.6735516 6.6735516 6.658534
          6.658534 7.749323 7.749323 6.681786 6.681786 6.664515
          6.664515 6.664122 6.664122 8.134891 8.134891 7.761538
          7.761538 6.6674523 6.6674523 6.962177 6.962177 9.003773
          9.003773 8.445175 8.445175 6.6706634 6.6706634 6.826235
          6.826235 6.6786995 6.6786995 6.8437552 6.8437552 6.681247
          6.681247 6.7078547 6.7078547 6.68498 6.68498 6.7374988
          6.7374988 6.724621 6.724621 6.8814025 6.8814025 6.728962
          6.728962 6.7336535 6.7336535 6.7474637 6.7474637 6.9926066
          6.9926066 6.774929 6.774929 7.037079 7.037079 6.7940636
          6.7940636 7.631136 7.631136 7.069489 7.069489 6.815548
          6.815548 7.309573 7.309573 7.2623096 7.2623096 6.837442
          6.837442 6.8322196 6.8322196 6.862155 6.862155 6.9035707
          6.9035707 6.871386 6.871386 6.904833 6.904833 6.8832874
          6.8832874 7.0110393 7.0110393 6.9246645 6.9246645 6.930183
          6.930183 6.949239 6.949239 7.058893 7.058893 6.973784
          6.973784 7.115506 7.115506 7.0142584 7.0142584 7.036298
          7.036298 7.052089 7.052089 7.079523 7.079523 7.1142397
          7.1142397 7.0624948 7.0624948 7.146345 7.146345 7.265949
          7.265949 7.1832266 7.1832266 7.1511564 7.1511564 7.281793
          7.281793 7.1555576 7.1555576 7.941226 7.941226 7.1569347
          7.1569347 7.191063 7.191063 7.1574883 7.1574883 7.1928935
          7.1928935 7.1579857 7.1579857 7.4882364 7.4882364 7.192732
          7.192732 7.182624 7.182624 7.229034 7.229034 7.3826118
          7.3826118 7.284137 7.284137 7.82009 7.82009 7.303767
          7.303767 8.387162 8.387162 7.313075 7.313075 7.9521046
          7.9521046 7.3851724 7.3851724 7.3181477 7.3181477 7.3883944
          7.3883944 7.6722217 7.6722217 7.407483 7.407483 7.753436
          7.753436 7.4094296 7.4094296 7.622709 7.622709 7.4374585
          7.4374585 7.5396733 7.5396733 7.517549 7.517549 7.5135446
          7.5135446 7.5358577 7.5358577 7.696076 7.696076 7.5665774
          7.5665774 7.653753 7.653753 7.5671754 7.5671754 7.6599007
          7.6599007 7.6306763 7.6306763 7.5892944 7.5892944 7.654009
          7.654009 7.64931 7.64931 7.6931357 7.6931357 7.6751003
          7.6751003 7.6997924 7.6997924 8.048706 8.048706 7.7354703
          7.7354703 8.265623 8.265623 7.746721 7.746721 8.069525
          8.069525 7.764517 7.764517 7.7919335 7.7919335 7.7913837
          7.7913837 7.7860484 7.7860484 7.7961116 7.7961116 7.952138
          7.952138 7.8193703 7.8193703 8.179189 8.179189 7.827133
          7.827133 7.826703 7.826703 7.829851 7.829851 8.296235
          8.296235 7.834287 7.834287 7.8717184 7.8717184 7.841258
          7.841258 8.280274 8.280274 7.9231577 7.9231577 8.328903
          8.328903 7.970035 7.970035 8.223408 8.223408 8.051477
          8.051477 8.488885 8.488885 8.062593 8.062593 8.116886
          8.116886 8.08238 8.08238 8.096939 8.096939 8.166259
          8.166259 8.094454 8.094454 8.210694 8.210694 8.285909
          8.285909 8.225273 8.225273 8.2114935 8.2114935 8.226956
          8.226956 8.403334 8.403334 8.234285 8.234285 8.28415
          8.28415 8.2444315 8.2444315 8.341327 8.341327 8.247347
          8.247347 8.303472 8.303472 8.261228 8.261228 8.481598
          8.481598 8.264579 8.264579 8.459823 8.459823 8.271651
          8.271651 8.335627 8.335627 8.280106 8.280106 8.354131
          8.354131 9.986909 9.986909 8.288157 8.288157 10.101404
          10.101404 10.0556755 10.0556755 8.295954 8.295954 8.290829
          8.290829 10.42808 10.42808 10.152364 10.152364 8.33091
          8.33091 8.373577 8.373577 8.354639 8.354639 8.345629
          8.345629 8.38201 8.38201 8.583397 8.583397 8.386656
          8.386656 8.504833 8.504833 8.397274 8.397274 8.401188
          8.401188 8.416194 8.416194 8.581691 8.581691 8.417967
          8.417967 8.437338 8.437338 8.42447 8.42447 8.591238
          8.591238 8.47229 8.47229 8.51191 8.51191 8.525423
          8.525423 8.763539 8.763539 8.537918 8.537918 8.649743
          8.649743 8.566457 8.566457 8.545786 8.545786 8.571091
          8.571091 8.677842 8.677842 8.580291 8.580291 8.593319
          8.593319 8.597065 8.597065 8.714992 8.714992 8.612532
          8.612532 8.6690645 8.6690645 8.619601 8.619601 9.212625
          9.212625 8.627639 8.627639 8.774347 8.774347 8.66248
          8.66248 8.689831 8.689831 8.680032 8.680032 8.666508
          8.666508 8.74807 8.74807 8.889385 8.889385 8.771033
          8.771033 8.770192 8.770192 8.775169 8.775169 8.91132
          8.91132 8.823189 8.823189 8.855529 8.855529 8.823752
          8.823752 9.324618 9.324618 8.824751 8.824751 8.855796
          8.855796 8.892073 8.892073 8.832201 8.832201 8.909311
          8.909311 9.023899 9.023899 8.951549 8.951549 8.92801
          8.92801 8.961668 8.961668 9.032416 9.032416 8.963635
          8.963635 8.964635 8.964635 9.011313 9.011313 9.003063
          9.003063 9.054675 9.054675 9.135103 9.135103 9.094553
          9.094553 9.100105 9.100105 9.066509 9.066509 9.108226
          9.108226 9.626962 9.626962 9.144944 9.144944 9.166092
          9.166092 9.145316 9.145316 9.185425 9.185425 9.157787
          9.157787 9.215386 9.215386 9.158839 9.158839 9.2350235
          9.2350235 9.183736 9.183736 9.306785 9.306785 9.18494
          9.18494 9.367779 9.367779 9.197173 9.197173 9.405046
          9.405046 9.229851 9.229851 9.199139 9.199139 9.239152
          9.239152 9.356703 9.356703 9.244814 9.244814 10.392252
          10.392252 9.28128 9.28128 11.058534 11.058534 9.282573
          9.282573 9.298899 9.298899 9.282647 9.282647 9.322043
          9.322043 9.284818 9.284818 9.287011 9.287011 9.29362
          9.29362 9.2911005 9.2911005 9.317486 9.317486 9.313978
          9.313978 9.369179 9.369179 9.321563 9.321563 9.458132
          9.458132 9.435486 9.435486 9.473187 9.473187 9.607469
          9.607469 9.473369 9.473369 9.478549 9.478549 9.488732
          9.488732 9.504405 9.504405 9.492793 9.492793 9.491077
          9.491077 9.495509 9.495509 9.58248 9.58248 9.496785
          9.496785 9.496897 9.496897 9.506844 9.506844 9.684879
          9.684879 9.521764 9.521764 9.633754 9.633754 9.544409
          9.544409 9.535955 9.535955 9.546439 9.546439 9.974409
          9.974409 9.644801 9.644801 10.113934 10.113934 9.669559
          9.669559 9.739024 9.739024 9.689229 9.689229 9.882176
          9.882176 9.692116 9.692116 10.70306 10.70306 9.699743
          9.699743 12.129775 12.129775 9.701248 9.701248 9.819987
          9.819987 9.708025 9.708025 9.839721 9.839721 9.76095
          9.76095 9.721008 9.721008 9.824175 9.824175 9.785424
          9.785424 9.865419 9.865419 9.830263 9.830263 9.869888
          9.869888 11.098625 11.098625 9.871903 9.871903 9.871004