<VTKFile type="UnstructuredGrid" version="1.0" byte_order="LittleEndian" header_type="UInt64">
  <UnstructuredGrid>
    <Piece NumberOfPoints="1809" NumberOfCells="1354">
      <PointData>
        <DataArray type="Float32" Name="Scalar" format="ascii" RangeMin="0" RangeMax="68.24547576904297">
          0 1.2061172 1.2061172 1.3352771 1.3352771 1.2248094
          1.2248094 1.3898994 1.3898994 1.3732047 1.3732047 1.4083805
          1.4083805 1.5328122 1.5328122 1.4104911 1.4104911 1.4411505
          1.4411505 1.4383234 1.4383234 1.5151738 1.5151738 1.441969
          1.441969 1.4488928 1.4488928 1.4443723 1.4443723 1.5117213
          1.5117213 1.4744031 1.4744031 1.4726934 1.4726934 1.4835606
          1.4835606 1.4841592 1.4841592 1.5343187 1.5343187 1.5059992
          1.5059992 1.5380641 1.5380641 1.6128134 1.6128134 1.5410475
          1.5410475 1.6003872 1.6003872 1.5800277 1.5800277 1.6454644
          1.6454644 1.583222 1.583222 1.6293206 1.6293206 1.6004611
          1.6004611 1.744585 1.744585 1.614413 1.614413 1.6241239
          1.6241239 1.6260169 1.6260169 1.6561874 1.6561874 1.6337756
          1.6337756 1.6791224 1.6791224 1.6457349 1.6457349 1.6704584
          1.6704584 1.6488689 1.6488689 1.6871785 1.6871785 1.6515815
          1.6515815 1.66111 1.66111 1.6760755 1.6760755 1.6748775
          1.6748775 1.686911 1.686911 1.695486 1.695486 1.7095065
          1.7095065 1.7751281 1.7751281 1.7510911 1.7510911 1.7973642
          1.7973642 1.7612532 1.7612532 1.759883 1.759883 1.768262
          1.768262 1.7882097 1.7882097 1.7829202 1.7829202 1.7692709
          1.7692709 1.7901376 1.7901376 1.8117481 1.8117481 1.7927709
          1.7927709 1.8323075 1.8323075 1.7958871 1.7958871 1.8813374
          1.8813374 1.7976717 1.7976717 1.9174576 1.9174576 1.8213074
          1.8213074 1.9062736 1.9062736 1.8360138 1.8360138 1.8250351
          1.8250351 1.8645201 1.8645201 1.8844031 1.8844031 1.8721695
          1.8721695 2.0619109 2.0619109 1.8835007 1.8835007 2.1439257
          2.1439257 1.9020157 1.9020157 2.3928583 2.3928583 1.9181916
          1.9181916 1.9179583 1.9179583 1.9380718 1.9380718 1.9211123
          1.9211123 1.9710093 1.9710093 2.0252795 2.0252795 2.041271
          2.041271 1.974004 1.974004 2.0483732 2.0483732 2.0532072
          2.0532072 2.0911922 2.0911922 2.04973 2.04973 2.100525
          2.100525 2.1928036 2.1928036 2.1170442 2.1170442 2.1280944
          2.1280944 2.1256425 2.1256425 2.119714 2.119714 2.1259127
          2.1259127 2.1288655 2.1288655 2.1952436 2.1952436 2.258503
          2.258503 2.235233 2.235233 2.1975677 2.1975677 2.2448802
          2.2448802 2.2691627 2.2691627 2.2723978 2.2723978 2.26018
          2.26018 2.3278189 2.3278189 2.3146825 2.3146825 2.344661
          2.344661 2.649203 2.649203 2.3493934 2.3493934 2.449603
          2.449603 2.3539248 2.3539248 2.4386218 2.4386218 2.3797724
          2.3797724 2.649147 2.649147 2.3908815 2.3908815 2.459852
          2.459852 2.3917813 2.3917813 2.4111137 2.4111137 2.4541242
          2.4541242 2.4201963 2.4201963 2.4771364 2.4771364 2.4757001
          2.4757001 2.4862256 2.4862256 2.589121 2.589121 2.5130398
          2.5130398 2.5643897 2.5643897 2.5671556 2.5671556 2.5376494
          2.5376494 2.5675972 2.5675972 2.6347287 2.6347287 2.571332
          2.571332 2.5808997 2.5808997 2.577648 2.577648 2.7188606
          2.7188606 2.6167033 2.6167033 2.6516936 2.6516936 2.6420329
          2.6420329 2.7336965 2.7336965 2.644368 2.644368 2.6957488
          2.6957488 2.6707895 2.6707895 2.6510978 2.6510978 2.6878974
          2.6878974 2.7660933 2.7660933 2.717445 2.717445 2.9353108
          2.9353108 2.7285721 2.7285721 2.722253 2.722253 2.7669704
          2.7669704 2.762317 2.762317 2.7924736 2.7924736 2.8505456
          2.8505456 2.7974591 2.7974591 3.1155756 3.1155756 2.82476
          2.82476 2.8007345 2.8007345 2.8542242 2.8542242 2.956951
          2.956951 2.8890123 2.8890123 2.8648446 2.8648446 2.9274342
          2.9274342 3.054858 3.054858 2.9392674 2.9392674 2.9619772
          2.9619772 2.9958668 2.9958668 2.9697065 2.9697065 3.019574
          3.019574 3.0651693 3.0651693 3.1378102 3.1378102 3.1264882
          3.1264882 3.2461815 3.2461815 3.395403 3.395403 3.3148444
          3.3148444 3.24887 3.24887 3.3174767 3.3174767 3.5968196
          3.5968196 3.4008486 3.4008486 3.356915 3.356915 3.478559
          3.478559 3.4615645 3.4615645 3.4954433 3.4954433 3.5050879
          3.5050879 3.5103362 3.5103362 3.9680061 3.9680061 3.5143535
          3.5143535 3.5339124 3.5339124 3.5315907 3.5315907 3.520696
          3.520696 3.5567012 3.5567012 3.630722 3.630722 3.5581512
          3.5581512 3.560019 3.560019 3.582132 3.582132 3.5608046
          3.5608046 3.583752 3.583752 3.5952914 3.5952914 3.7040913
          3.7040913 3.5944216 3.5944216 3.8152926 3.8152926 3.8399518
          3.8399518 3.9754949 3.9754949 3.815699 3.815699 4.01775
          4.01775 3.9885015 3.9885015 4.241788 4.241788 4.0848293
          4.0848293 4.271114 4.271114 4.246394 4.246394 4.322435
          4.322435 4.2798705 4.2798705 4.411979 4.411979 4.325643
          4.325643 4.413036 4.413036 4.4327064 4.4327064 4.4436073
          4.4436073 4.443175 4.443175 4.454611 4.454611 4.470815
          4.470815 4.46526 4.46526 4.474576 4.474576 4.465961
          4.465961 4.598348 4.598348 4.4822617 4.4822617 4.541127
          4.541127 4.4825144 4.4825144 4.4950047 4.4950047 4.4857993
          4.4857993 4.5461254 4.5461254 4.486689 4.486689 4.533106
          4.533106 4.4987807 4.4987807 4.558491 4.558491 4.8609233
          4.8609233 4.57029 4.57029 4.5827208 4.5827208 4.623608
          4.623608 5.104615 5.104615 4.646204 4.646204 4.655694
          4.655694 4.646559 4.646559 4.72786 4.72786 4.6731734
          4.6731734 4.6724825 4.6724825 4.71622 4.71622 5.7814856
          5.7814856 4.720064 4.720064 6.346629 6.346629 4.7396674
          4.7396674 4.90294 4.90294 4.779817 4.779817 4.757987
          4.757987 4.8070297 4.8070297 5.041696 5.041696 4.808709
          4.808709 4.8123913 4.8123913 4.81491 4.81491 4.8209243
          4.8209243 4.817782 4.817782 6.8415527 6.8415527 4.9046345
          4.9046345 4.836861 4.836861 5.0220942 5.0220942 4.971413
          4.971413 5.0234466 5.0234466 5.1419187 5.1419187 5.0288095
          5.0288095 5.033569 5.033569 5.030776 5.030776 5.034552
          5.034552 5.0461097 5.0461097 5.0332303 5.0332303 5.04633
          5.04633 5.2458944 5.2458944 5.0598707 5.0598707 5.0792136
          5.0792136 5.0962925 5.0962925 5.0987086 5.0987086 5.096566
          5.096566 5.149679 5.149679 5.284313 5.284313 5.106942
          5.106942 5.28889 5.28889 5.342498 5.342498 5.292572
          5.292572 5.333013 5.333013 5.3087 5.3087 5.306181
          5.306181 5.3166137 5.3166137 5.712588 5.712588 5.318953
          5.318953 5.468083 5.468083 5.324936 5.324936 5.3222966
          5.3222966 5.336911 5.336911 5.330812 5.330812 5.39206
          5.39206 5.4181075 5.4181075 5.4048805 5.4048805 5.5774593
          5.5774593 5.4328136 5.4328136 5.547637 5.547637 5.472756
          5.472756 5.679026 5.679026 5.475526 5.475526 5.4986258
          5.4986258 5.486397 5.486397 5.5615926 5.5615926 5.491324
          5.491324 5.548623 5.548623 5.494276 5.494276 5.6739836
          5.6739836 5.497607 5.497607 5.819039 5.819039 5.5127716
          5.5127716 6.010748 6.010748 5.5572667 5.5572667 5.5233397
          5.5233397 5.6302037 5.6302037 5.5362253 5.5362253 5.548895
          5.548895 5.5508347 5.5508347 5.5429587 5.5429587 5.5549073
          5.5549073 5.5732336 5.5732336 5.612778 5.612778 5.623069
          5.623069 5.623995 5.623995 5.8843923 5.8843923 5.6259627
          5.6259627 5.933699 5.933699 5.627516 5.627516 5.746215
          5.746215 5.6504593 5.6504593 5.6330442 5.6330442 5.6547832
          5.6547832 5.687626 5.687626 5.6648145 5.6648145 5.7159767
          5.7159767 5.6659055 5.6659055 5.6895337 5.6895337 5.677048
          5.677048 5.6810336 5.6810336 5.6875925 5.6875925 5.687342
          5.687342 5.7147994 5.7147994 5.9916835 5.9916835 5.7373166
          5.7373166 5.726122 5.726122 5.7696457 5.7696457 5.7388654
          5.7388654 5.7731586 5.7731586 6.0315785 6.0315785 5.7815604
          5.7815604 5.8436713 5.8436713 5.78427 5.78427 5.8087215
          5.8087215 5.7851973 5.7851973 6.1205325 6.1205325 5.8135076
          5.8135076 5.7923017 5.7923017 5.8184156 5.8184156 5.977777
          5.977777 5.835704 5.835704 5.8652387 5.8652387 5.836981
          5.836981 6.044321 6.044321 5.8985124 5.8985124 5.8906927
          5.8906927 5.902232 5.902232 5.952122 5.952122 5.928289
          5.928289 5.991999 5.991999 5.934986 5.934986 6.2807374
          6.2807374 5.93521 5.93521 5.9780035 5.9780035 5.9902596
          5.9902596 6.0550513 6.0550513 6.032344 6.032344 6.0328474
          6.0328474 6.0606313 6.0606313 6.0767126 6.0767126 6.189835
          6.189835 6.508789 6.508789 6.1938925 6.1938925 6.207172
          6.207172 6.2257957 6.2257957 6.3606935 6.3606935 6.246158
          6.246158 6.455857 6.455857 6.259711 6.259711 6.7759953
          6.7759953 6.2740297 6.2740297 6.314176 6.314176 6.279135
          6.279135 6.3612704 6.3612704 6.3117065 6.3117065 6.297153
          6.297153 6.34652 6.34652 6.375492 6.375492 6.402103
          6.402103 6.6484995 6.6484995 6.4637003 6.4637003 8.66318
          8.66318 6.5382867 6.5382867 6.492573 6.492573 6.5594025
          6.5594025 6.82141 6.82141 6.5741215 6.5741215 6.5780244
          6.5780244 6.693467 6.693467 6.5852394 6.5852394 6.7181735
          6.7181735 6.7182593 6.7182593 6.7325177 6.7325177 6.7416954
          6.7416954 6.7924933 6.7924933 6.7599096 6.7599096 6.8422155
          6.8422155 6.8768234 6.8768234 6.8731756 6.8731756 7.1416154
          7.1416154 6.895505 6.895505 6.8743777 6.8743777 6.903689
          6.903689 6.900165 6.900165 6.9353757 6.9353757 6.999132
          6.999132 6.95445 6.95445 7.0793905 7.0793905 6.975126
          6.975126 7.011376 7.011376 6.9937134 6.9937134 9.956791
          9.956791 7.001959 7.001959 7.003747 7.003747 7.079513
          7.079513 7.6889997 7.6889997 7.1028147 7.1028147 7.446102
          7.446102 7.105117 7.105117 7.427885 7.427885 7.123373
          7.123373 7.109219 7.109219 7.128239 7.128239 8.41713
          8.41713 7.1412506 7.1412506 7.6985154 7.6985154 7.191998
          7.191998 7.2084546 7.2084546 7.214081 7.214081 7.1926627
          7.1926627 7.233288 7.233288 7.530055 7.530055 7.2540393
          7.2540393 7.429171 7.429171 7.2642827 7.2642827 7.2883844
          7.2883844 7.2801223 7.2801223 7.519641 7.519641 7.294513
          7.294513 7.4244337 7.4244337 7.330008 7.330008 7.726728
          7.726728 7.402677 7.402677 7.3407564 7.3407564 7.4118853
          7.4118853 7.494139 7.494139 7.4351554 7.4351554 7.4385056
          7.4385056 7.447213 7.447213 7.5791802 7.5791802 7.4504876
          7.4504876 9.04947 9.04947 7.4997597 7.4997597 9.681557
          9.681557 7.5322084 7.5322084 7.715029 7.715029 7.5463696
          7.5463696 7.5486565 7.5486565 7.550958 7.550958 7.90166
          7.90166 7.574028 7.574028 7.558784 7.558784 7.595372
          7.595372 9.621111 9.621111 7.617755 7.617755 7.6680107
          7.6680107 7.660862 7.660862 7.6592045 7.6592045 7.6574306
          7.6574306 7.6712656 7.6712656 7.72442 7.72442 7.6766005
          7.6766005 7.9702215 7.9702215 7.724246 7.724246 7.741529
          7.741529 7.7310777 7.7310777 7.750006 7.750006 7.748849
          7.748849 7.7322626 7.7322626 7.7689595 7.7689595 7.8614874
          7.8614874 7.7823954 7.7823954 8.528778 8.528778 7.7885656
          7.7885656 7.7824025 7.7824025 7.8007326 7.8007326 7.803094
          7.803094 7.842671 7.842671 7.83744 7.83744 7.8499084
          7.8499084 7.9163837 7.9163837 7.868371 7.868371 7.8735414
          7.8735414 7.8942204 7.8942204 7.879943 7.879943 7.9070945
          7.9070945 8.049059 8.049059 7.916428 7.916428 8.250798
          8.250798 7.9370036 7.9370036 8.034536 8.034536 7.937634
          7.937634 7.981675 7.981675 7.951302 7.951302 7.9468236
          7.9468236 8.054027 8.054027 8.001245 8.001245 8.090862
          8.090862 8.110561 8.110561 8.104385 8.104385 8.198743
          8.198743 8.107291 8.107291 8.1459675 8.1459675 8.148685
          8.148685 8.120934 8.120934 8.1531105 8.1531105 8.149561
          8.149561 8.157266 8.157266 8.222989 8.222989 8.163954
          8.163954 8.175237 8.175237 8.169832 8.169832 8.167199
          8.167199 8.171395 8.171395 8.19296 8.19296 8.19574
          8.19574 8.267473 8.267473 8.215952 8.215952 8.390377
          8.390377 8.239216 8.239216 8.26793 8.26793 8.254175
          8.254175 8.663513 8.663513 8.268416 8.268416 8.470007
          8.470007 8.291035 8.291035 8.335238 8.335238 8.300128
          8.300128 8.319245 8.319245 8.383213 8.383213 9.23866
          9.23866 8.408413 8.408413 8.463886 8.463886 8.550154
          8.550154 8.42464 8.42464 8.609183 8.609183 8.61674
          8.61674 8.663005 8.663005 9.349618 9.349618 8.68032
          8.68032 9.419129 9.419129 8.710261 8.710261 8.832481
          8.832481 8.719669 8.719669 8.869922 8.869922 8.725019
          8.725019 8.752928 8.752928 8.747863 8.747863 8.786792
          8.786792 8.841358 8.841358 8.81994 8.81994 8.894378
          8.894378 8.843575 8.843575 8.921509 8.921509 8.921291
          8.921291 8.989695 8.989695 9.045983 9.045983 9.025247
          9.025247 8.997574 8.997574 9.0568695 9.0568695 10.701988
          10.701988 9.09978 9.09978 9.061424 9.061424 9.210446
          9.210446 9.113252 9.113252 9.231258 9.231258 9.281575
          9.281575 9.286742 9.286742 9.236702 9.236702 9.301617
          9.301617 9.326552 9.326552 9.311807 9.311807 9.39
          9.39 9.321024 9.321024 9.884208 9.884208 10.824389
          10.824389 9.3530655 9.3530655 11.006116 11.006116 11.0301075
          11.0301075 9.489626 9.489626 9.360371 9.360371 11.006549
          11.006549 13.370397 13.370397 9.510695 9.510695 9.630128
          9.630128 11.019878 11.019878 11.020905 11.020905 9.513497
          9.513497 9.541027 9.541027 11.020864 11.020864 11.071133
          11.071133 9.518465 9.518465 9.53616 9.53616 11.449314
          11.449314 11.060552 11.060552 9.596997 9.596997 9.531327
          9.531327 12.523574 12.523574 11.488567 11.488567 9.5970955
          9.5970955 9.597071 9.597071 12.713637 12.713637 12.590629
          12.590629 11.552501 11.552501 11.557754 11.557754 9.597681
          9.597681 9.627355 9.627355 13.019063 13.019063 12.944134
          12.944134 11.588066 11.588066 11.602586 11.602586 9.604426
          9.604426 9.66019 9.66019 11.602738 11.602738 11.650944
          11.650944 9.687762 9.687762 9.699407 9.699407 12.010648
          12.010648 12.321039 12.321039 9.788736 9.788736 9.732115
          9.732115 13.60547 13.60547 12.137151 12.137151 9.822437
          9.822437 9.809565 9.809565 9.845278 9.845278 10.232651
          10.232651 9.847541 9.847541 9.849565 9.849565 9.851692
          9.851692 11.294858 11.294858 9.852381 9.852381 10.794349
          10.794349 9.869432 9.869432 10.212453 10.212453 9.973866
          9.973866 9.879655 9.879655 9.980095 9.980095 9.988882
          9.988882 10.0275 10.0275 9.994484 9.994484 10.124897
          10.124897 10.030449 10.030449 10.131993 10.131993 10.268698
          10.268698 10.16151 10.16151 10.569616 10.569616 10.165716
          10.165716 10.401044 10.401044 10.296734 10.296734 10.230895
          10.230895 10.306073 10.306073 10.476504 10.476504 10.309452
          10.309452 11.05258 11.05258 10.377062 10.377062 10.469399
          10.469399 10.46216 10.46216 10.392784 10.392784 10.474993
          10.474993 10.884015 10.884015 10.484178 10.484178 10.567823
          10.567823 10.486502 10.486502 10.500016 10.500016 10.517315
          10.517315 10.504135 10.504135 10.595508 10.595508 10.686014
          10.686014 10.609774 10.609774 10.63296 10.63296 10.629514
          10.629514 11.016931 11.016931 10.643754 10.643754 10.660614
          10.660614 10.648209 10.648209 10.679706 10.679706 10.677293
          10.677293 10.720416 10.720416 10.707585 10.707585 11.884474
          11.884474 10.749454 10.749454 10.709632 10.709632 10.775748
          10.775748 10.773008 10.773008 10.7761545 10.7761545 10.802999
          10.802999 10.868616 10.868616 10.820682 10.820682 10.923824
          10.923824 10.889813 10.889813 10.966222 10.966222 10.967636
          10.967636 10.982369 10.982369 11.240583 11.240583 11.015669
          11.015669 11.067912 11.067912 11.028223 11.028223 11.09837
          11.09837 11.077713 11.077713 11.081717 11.081717 11.085859
          11.085859 11.115356 11.115356 11.115618 11.115618 11.144845
          11.144845 11.153462 11.153462 11.153996 11.153996 11.270831
          11.270831 11.171693 11.171693 12.345563 12.345563 11.296374
          11.296374 14.108878 14.108878 12.784689 12.784689 11.332869
          11.332869 11.327885 11.327885 11.400091 11.400091 12.384816
          12.384816 11.40898 11.40898 11.415156 11.415156 11.421714
          11.421714 11.431299 11.431299 11.443501 11.443501 11.732578
          11.732578 11.533262 11.533262 11.585252 11.585252 11.718233
          11.718233 11.568564 11.568564 11.747549 11.747549 11.726458
          11.726458 11.874539 11.874539 11.782038 11.782038 11.983095
          11.983095 11.888157 11.888157 12.070298 12.070298 12.692009
          12.692009 12.102314 12.102314 12.213033 12.213033 12.112726
          12.112726 12.13524 12.13524 12.121212 12.121212 12.12126
          12.12126 12.430148 12.430148 12.132746 12.132746 12.930503
          12.930503 13.092018 13.092018 13.209712 13.209712 12.938929
          12.938929 13.548609 13.548609 13.50936 13.50936 13.570204
          13.570204 14.037272 14.037272 13.653094 13.653094 13.587154
          13.587154 13.693816 13.693816 13.723626 13.723626 14.07439
          14.07439 13.703501 13.703501 14.196809 14.196809 14.092619
          14.092619 14.458309 14.458309 15.499604 15.499604 14.644601
          14.644601 14.658724 14.658724 14.745099 14.745099 15.545675
          15.545675 15.0797615 15.0797615 14.781909 14.781909 15.1004505
          15.1004505 15.951358 15.951358 15.238404 15.238404 15.26054
          15.26054 17.29499 17.29499 16.271904 16.271904 15.260663
          15.260663 15.333955 15.333955 17.423058 17.423058 17.32163
          17.32163 15.5302 15.5302 15.297105 15.297105 17.450363
          17.450363 17.448296 17.448296 15.952314 15.952314 15.542779
          15.542779 16.703312 16.703312 15.973006 15.973006 16.971626
          16.971626 17.497778 17.497778 17.00688 17.00688 16.975113
          16.975113 17.283672 17.283672 17.102938 17.102938 17.64908
          17.64908 17.317478 17.317478 17.66073 17.66073 19.352354
          19.352354 17.897524 17.897524 17.692572 17.692572 18.088896
          18.088896 18.366894 18.366894 18.69164 18.69164 18.09083
          18.09083 18.695045 18.695045 18.78514 18.78514 18.90735
          18.90735 18.698858 18.698858 18.948587 18.948587 19.028278
          19.028278 19.099884 19.099884 19.085987 19.085987 19.33021
          19.33021 19.120825 19.120825 19.34603 19.34603 19.338316
          19.338316 20.08615 20.08615 22.126005 22.126005 20.257912
          20.257912 20.131279 20.131279 30.192842 30.192842 24.183144
          24.183144 30.493153 30.493153 31.824894 31.824894 27.15396
          27.15396 24.372755 24.372755 30.52257 30.52257 32.2407
          32.2407 27.765509 27.765509 27.770996 27.770996 30.85759
          30.85759 30.929249 30.929249 29.159275 29.159275 27.872833
          27.872833 31.901777 31.901777 30.911926 30.911926 32.41364
          32.41364 29.173895 29.173895 27.92306 27.92306 27.949537
          27.949537 32.74174 32.74174 33.02048 33.02048 34.657253
          34.657253 27.934246 27.934246 33.470257 33.470257 33.437473
          33.437473 35.78696 35.78696 34.798878 34.798878 46.190216
          46.190216 33.478085 33.478085 51.677834 51.677834 47.252087
          47.252087 58.166855 58.166855 52.543137 52.543137 49.587746
          49.587746 47.66066 47.66066 60.47409 60.47409 58.190067
          58.190067 50.13264 50.13264 49.616848 49.616848 65.336296
          65.336296 62.73317 62.73317 50.15912 50.15912 50.370365
          50.370365 66.052704 66.052704 65.50352 65.50352 50.72725
          50.72725 51.09309 51.09309 66.97534 66.97534 66.848366
          66.848366 51.50507 51.50507 50.927635 50.927635 68.245476
          68.245476 67.94961 67.94961
        </DataArray>
      </PointData>
      <CellData>
        <DataArray type="Float64" Name="NodeId" format="ascii" RangeMin="1" RangeMax="904">
          904 904 903 903 904 901
          901 904 899 899 904 898
          898 904 897 897 904 896
          896 904 894 894 904 893
          893 904 890 890 904 889
          889 904 883 883 904 882
          882 904 881 881 904 880
          880 904 879 879 904 877
          877 904 875 875 904 873
          873 904 871 871 904 869
          869 904 868 868 904 867
          867 904 862 862 904 860
          860 904 857 857 904 855
          855 904 853 853 904 852
          852 904 849 849 904 847
          847 904 846 846 904 845
          845 904 843 843 904 841
          841 904 838 838 904 837
          837 904 836 836 904 834
          834 904 832 832 904 828
          828 904 826 826 904 825
          825 904 822 822 904 821
          821 904 817 817 904 816
          816 904 815 815 904 813
          813 904 812 812 904 807
          807 904 805 805 904 804
          804 904 800 800 904 798
          798 904 797 797 904 796
          796 904 795 795 904 794
          794 904 793 793 904 792
          792 904 786 786 904 783
          783 904 782 782 904 781
          781 904 778 778 904 777
          777 904 776 776 904 775
          775 904 772 772 904 770
          770 904 769 769 904 764
          764 904 763 763 904 761
          761 904 758 758 904 754
          754 904 753 753 904 752
          752 904 750 750 904 748
          748 904 746 746 904 745
          745 904 743 743 904 739
          739 904 738 738 904 733
          733 904 732 732 904 730
          730 904 729 729 904 726
          726 904 724 724 904 723
          723 904 721 721 904 720
          720 904 718 718 904 716
          716 904 715 715 904 712
          712 904 711 711 904 706
          706 904 705 705 904 701
          701 904 699 699 904 697
          697 904 695 695 904 693
          693 904 691 691 904 690
          690 904 687 687 904 686
          686 904 685 685 904 684
          684 904 681 681 904 680
          680 1 904 679 679 904
          675 675 904 672 672 904
          671 671 904 668 668 904
          667 667 904 666 666 904
          663 663 904 662 662 904
          661 661 904 659 659 904
          657 657 904 656 656 904
          655 655 904 653 653 904
          652 652 904 647 647 904
          645 645 904 644 644 904
          643 643 904 642 642 904
          637 637 904 636 636 904
          635 635 904 633 633 904
          632 632 904 625 625 904
          624 624 904 623 623 904
          621 621 904 620 620 904
          619 619 904 617 617 904
          614 614 904 612 612 904
          611 611 904 609 609 904
          607 607 904 606 606 904
          605 605 904 604 604 904
          603 603 904 602 602 1
          904 600 600 904 599 599
          904 598 598 904 593 593
          904 592 592 904 587 587
          904 585 585 904 584 584
          904 583 583 904 580 580
          904 579 579 904 578 578
          904 577 577 904 575 575
          904 571 571 904 567 567
          904 564 564 904 561 561
          904 560 560 904 558 558
          904 557 557 904 556 556
          904 553 553 904 552 552
          904 550 550 904 549 549
          904 544 544 904 543 543
          904 542 542 904 540 540
          904 539 539 904 535 535
          904 530 530 904 526 526
          904 523 523 904 522 522
          904 520 520 904 519 519
          904 518 518 904 517 517
          904 516 516 904 513 513
          904 511 511 904 506 506
          904 504 504 904 501 501
          904 500 500 904 499 499
          904 495 495 904 494 494
          904 492 492 904 488 488
          904 485 485 904 484 484
          904 481 481 904 479 479
          904 478 478 904 477 477
          904 476 476 904 475 475
          904 473 473 904 469 469
          904 468 468 904 467 467
          904 465 465 904 464 464
          904 463 463 904 461 461
          904 458 458 904 457 457
          904 456 456 904 455 455
          904 454 454 904 452 452
          904 451 451 904 449 449
          904 448 448 904 444 444
          904 441 441 904 440 440
          904 438 438 904 435 435
          904 434 434 904 432 432
          904 430 430 904 428 428
          1 904 427 427 904 425
          425 904 422 422 904 421
          421 904 417 417 904 414
          414 904 411 411 904 409
          409 904 408 408 904 406
          406 904 405 405 904 402
          402 904 401 401 904 399
          399 904 396 396 904 394
          394 904 392 392 904 391
          391 904 390 390 904 388
          388 904 382 382 904 381
          381 904 380 380 904 379
          379 904 375 375 904 373
          373 904 372 372 904 371
          371 904 369 369 904 368
          368 904 365 365 904 363
          363 904 361 361 904 359
          359 904 356 356 904 355
          355 904 354 354 904 351
          351 904 349 349 904 343
          343 904 342 342 904 340
          340 904 337 337 904 336
          336 904 335 335 904 334
          334 904 333 333 904 328
          328 904 325 325 904 323
          323 904 322 322 904 320
          320 904 317 317 904 315
          315 904 313 313 904 312
          312 904 308 308 904 307
          307 904 306 306 305 305
          904 305 214 214 904 302
          302 305 206 206 904 298
          298 305 205 205 904 297
          297 305 202 202 904 296
          296 305 201 201 904 295
          295 171 171 305 904 291
          291 171 137 137 305 170
          170 904 289 289 171 134
          134 305 168 168 904 288
          288 305 164 164 904 287
          287 305 162 162 904 281
          281 305 151 151 904 278
          278 904 276 276 904 275
          275 904 274 274 904 272
          272 904 271 271 904 270
          270 904 266 266 904 265
          265 904 262 262 904 260
          260 904 259 259 904 258
          258 904 257 257 904 252
          252 904 251 251 904 250
          250 904 249 249 904 246
          246 904 244 244 904 242
          242 904 241 241 904 238
          238 904 235 235 904 234
          234 904 233 233 904 231
          231 904 230 230 904 228
          228 904 224 224 904 221
          221 904 219 219 904 218
          218 904 213 213 904 210
          210 904 209 209 904 207
          207 904 204 204 904 199
          199 904 193 193 904 191
          191 904 188 188 904 186
          186 182 182 904 182 140
          140 904 180 180 904 178
          178 904 177 177 904 176
          176 904 174 174 904 172
          172 904 169 169 904 160
          160 904 157 157 904 155
          155 904 152 152 904 150
          150 904 149 149 904 148
          148 904 147 147 904 138
          138 904 132 132 904 127
          127 904 124 124 904 123
          123 904 120 120 904 119
          119 904 115 115 904 112
          112 904 111 111 904 110
          110 904 108 108 904 106
          106 904 105 105 106 95
          95 904 104 104 106 85
          85 904 102 102 106 82
          82 904 98 98 904 94
          94 904 91 91 904 90
          90 904 88 88 904 86
          86 904 78 78 904 77
          77 904 75 75 904 74
          74 904 71 71 904 70
          70 904 67 67 904 66
          66 904 63 63 904 61
          61 59 59 904 59 57
          57 904 54 54 904 42
          42 54 53 53 904 41
          41 54 51 51 904 40
          40 50 50 54 904 39
          39 50 44 44 54 48
          48 904 35 35 54 47
          47 904 32 32 54 27
          27 904 29 29 904 24
          24 904 12 12 24 23
          23 904 10 10 24 21
          21 904 8 8 24 19
          19 904 6 6 24 18
          18 904 4 4 24 16
          16 904 2 2
        </DataArray>
        <DataArray type="Float64" Name="Scalar" format="ascii" RangeMin="0" RangeMax="67.9496078491211">
          0 0 1.2061171531677246 1.2061171531677246 0 1.3352770805358887
          1.3352770805358887 0 1.3898993730545044 1.3898993730545044 0 1.4083805084228516
          1.4083805084228516 0 1.4104911088943481 1.4104911088943481 0 1.4383233785629272
          1.4383233785629272 0 1.4419690370559692 1.4419690370559692 0 1.444372296333313
          1.444372296333313 0 1.4744031429290771 1.4744031429290771 0 1.483560562133789
          1.483560562133789 0 1.5343186855316162 1.5343186855316162 0 1.5380641222000122
          1.5380641222000122 0 1.54104745388031 1.54104745388031 0 1.58002769947052
          1.58002769947052 0 1.5832220315933228 1.5832220315933228 0 1.6004611253738403
          1.6004611253738403 0 1.6144130229949951 1.6144130229949951 0 1.6260168552398682
          1.6260168552398682 0 1.6337755918502808 1.6337755918502808 0 1.6457349061965942
          1.6457349061965942 0 1.6488689184188843 1.6488689184188843 0 1.6515815258026123
          1.6515815258026123 0 1.6760754585266113 1.6760754585266113 0 1.6869109869003296
          1.6869109869003296 0 1.7095065116882324 1.7095065116882324 0 1.7510911226272583
          1.7510911226272583 0 1.7612532377243042 1.7612532377243042 0 1.7682620286941528
          1.7682620286941528 0 1.782920241355896 1.782920241355896 0 1.7901376485824585
          1.7901376485824585 0 1.7927708625793457 1.7927708625793457 0 1.7958871126174927
          1.7958871126174927 0 1.7976716756820679 1.7976716756820679 0 1.8213074207305908
          1.8213074207305908 0 1.8360137939453125 1.8360137939453125 0 1.8645200729370117