<VTKFile type="UnstructuredGrid" version="1.0" byte_order="LittleEndian" header_type="UInt64">
  <UnstructuredGrid>
    <FieldData>
      <DataArray type="Float64" Name="ClusterID" NumberOfTuples="1" format="ascii" RangeMin="0" RangeMax="0">
        0
      </DataArray>
      <DataArray type="Float64" Name="TimeStep" NumberOfTuples="1" format="ascii" RangeMin="2" RangeMax="2">
        2
      </DataArray>
    </FieldData>
    <Piece NumberOfPoints="1809" NumberOfCells="0">
      <PointData>
        <DataArray type="Int32" Name="NodeId" format="ascii" RangeMin="0" RangeMax="1808">
          0 2 2 4 4 6
          6 8 8 10 10 12
          12 14 14 16 16 18
          18 20 20 22 22 24
          24 26 26 28 28 30
          30 32 32 34 34 36
          36 38 38 40 40 42
          42 44 44 46 46 48
          48 50 50 52 52 54
          54 56 56 58 58 60
          60 62 62 64 64 66
          66 68 68 70 70 72
          72 74 74 76 76 78
          78 80 80 82 82 84
          84 86 86 88 88 90
          90 92 92 94 94 96
          96 98 98 100 100 102
          102 104 104 106 106 108
          108 110 110 112 112 114
          114 116 116 118 118 120
          120 122 122 124 124 126
          126 128 128 130 130 132
          132 134 134 136 136 138
          138 140 140 142 142 144
          144 146 146 148 148 150
          150 152 152 154 154 156
          156 158 158 160 160 162
          162 164 164 166 166 168
          168 170 170 172 172 174
          174 176 176 178 178 180
          180 182 182 184 184 186
          186 188 188 190 190 192
          192 194 194 196 196 198
          198 200 200 202 202 204
          204 206 206 208 208 210
          210 212 212 214 214 216
          216 218 218 220 220 222
          222 224 224 226 226 228
          228 230 230 232 232 234
          234 236 236 238 238 240
          240 242 242 244 244 246
          246 248 248 250 250 252
          252 254 254 256 256 258
          258 260 260 262 262 264
          264 266 266 268 268 270
          270 272 272 274 274 276
          276 278 278 280 280 282
          282 284 284 286 286 288
          288 290 290 292 292 294
          294 296 296 298 298 300
          300 302 302 304 304 306
          306 308 308 310 310 312
          312 314 314 316 316 318
          318 320 320 322 322 324
          324 326 326 328 328 330
          330 332 332 334 334 336
          336 338 338 340 340 342
          342 344 344 346 346 348
          348 350 350 352 352 354
          354 356 356 358 358 360
          360 362 362 364 364 366
          366 368 368 370 370 372
          372 374 374 376 376 378
          378 380 380 382 382 384
          384 386 386 388 388 390
          390 392 392 394 394 396
          396 398 398 400 400 402
          402 404 404 406 406 408
          408 410 410 412 412 414
          414 416 416 418 418 420
          420 422 422 424 424 426
          426 428 428 430 430 432
          432 434 434 436 436 438
          438 440 440 442 442 444
          444 446 446 448 448 450
          450 452 452 454 454 456
          456 458 458 460 460 462
          462 464 464 466 466 468
          468 470 470 472 472 474
          474 476 476 478 478 480
          480 482 482 484 484 486
          486 488 488 490 490 492
          492 494 494 496 496 498
          498 500 500 502 502 504
          504 506 506 508 508 510
          510 512 512 514 514 516
          516 518 518 520 520 522
          522 524 524 526 526 528
          528 530 530 532 532 534
          534 536 536 538 538 540
          540 542 542 544 544 546
          546 548 548 550 550 552
          552 554 554 556 556 558
          558 560 560 562 562 564
          564 566 566 568 568 570
          570 572 572 574 574 576
          576 578 578 580 580 582
          582 584 584 586 586 588
          588 590 590 592 592 594
          594 596 596 598 598 600
          600 602 602 604 604 606
          606 608 608 610 610 612
          612 614 614 616 616 618
          618 620 620 622 622 624
          624 626 626 628 628 630
          630 632 632 634 634 636
          636 638 638 640 640 642
          642 644 644 646 646 648
          648 650 650 652 652 654
          654 656 656 658 658 660
          660 662 662 664 664 666
          666 668 668 670 670 672
          672 674 674 676 676 678
          678 680 680 682 682 684
          684 686 686 688 688 690
          690 692 692 694 694 696
          696 698 698 700 700 702
          702 704 704 706 706 708
          708 710 710 712 712 714
          714 716 716 718 718 720
          720 722 722 724 724 726
          726 728 728 730 730 732
          732 734 734 736 736 738
          738 740 740 742 742 744
          744 746 746 748 748 750
          750 752 752 754 754 756
          756 758 758 760 760 762
          762 764 764 766 766 768
          768 770 770 772 772 774
          774 776 776 778 778 780
          780 782 782 784 784 786
          786 788 788 790 790 792
          792 794 794 796 796 798
          798 800 800 802 802 804
          804 806 806 808 808 810
          810 812 812 814 814 816
          816 818 818 820 820 822
          822 824 824 826 826 828
          828 830 830 832 832 834
          834 836 836 838 838 840
          840 842 842 844 844 846
          846 848 848 850 850 852
          852 854 854 856 856 858
          858 860 860 862 862 864
          864 866 866 868 868 870
          870 872 872 874 874 876
          876 878 878 880 880 882
          882 884 884 886 886 888
          888 890 890 892 892 894
          894 896 896 898 898 900
          900 902 902 904 904 906
          906 908 908 910 910 912
          912 914 914 916 916 918
          918 920 920 922 922 924
          924 926 926 928 928 930
          930 932 932 934 934 936
          936 938 938 940 940 942
          942 944 944 946 946 948
          948 950 950 952 952 954
          954 956 956 958 958 960
          960 962 962 964 964 966
          966 968 968 970 970 972
          972 974 974 976 976 978
          978 980 980 982 982 984
          984 986 986 988 988 990
          990 992 992 994 994 996
          996 998 998 1000 1000 1002
          1002 1004 1004 1006 1006 1008
          1008 1010 1010 1012 1012 1014
          1014 1016 1016 1018 1018 1020
          1020 1022 1022 1024 1024 1026
          1026 1028 1028 1030 1030 1032
          1032 1034 1034 1036 1036 1038
          1038 1040 1040 1042 1042 1044
          1044 1046 1046 1048 1048 1050
          1050 1052 1052 1054 1054 1056
          1056 1058 1058 1060 1060 1062
          1062 1064 1064 1066 1066 1068
          1068 1070 1070 1072 1072 1074
          1074 1076 1076 1078 1078 1080
          1080 1082 1082 1084 1084 1086
          1086 1088 1088 1090 1090 1092
          1092 1094 1094 1096 1096 1098
          1098 1100 1100 1102 1102 1104
          1104 1106 1106 1108 1108 1110
          1110 1112 1112 1114 1114 1116
          1116 1118 1118 1120 1120 1122
          1122 1124 1124 1126 1126 1128
          1128 1130 1130 1132 1132 1134
          1134 1136 1136 1138 1138 1140
          1140 1142 1142 1144 1144 1146
          1146 1148 1148 1150 1150 1152
          1152 1154 1154 1156 1156 1158
          1158 1160 1160 1162 1162 1164
          1164 1166 1166 1168 1168 1170
          1170 1172 1172 1174 1174 1176
          1176 1178 1178 1180 1180 1182
          1182 1184 1184 1186 1186 1188
          1188 1190 1190 1192 1192 1194
          1194 1196 1196 1198 1198 1200
          1200 1202 1202 1204 1204 1206
          1206 1208 1208 1210 1210 1212
          1212 1214 1214 1216 1216 1218
          1218 1220 1220 1222 1222 1224
          1224 1226 1226 1228 1228 1230
          1230 1232 1232 1234 1234 1236
          1236 1238 1238 1240 1240 1242
          1242 1244 1244 1246 1246 1248
          1248 1250 1250 1252 1252 1254
          1254 1256 1256 1258 1258 1260
          1260 1262 1262 1264 1264 1266
          1266 1268 1268 1270 1270 1272
          1272 1274 1274 1276 1276 1278
          1278 1280 1280 1282 1282 1284
          1284 1286 1286 1288 1288 1290
          1290 1292 1292 1294 1294 1296
          1296 1298 1298 1300 1300 1302
          1302 1304 1304 1306 1306 1308
          1308 1310 1310 1312 1312 1314
          1314 1316 1316 1318 1318 1320
          1320 1322 1322 1324 1324 1326
          1326 1328 1328 1330 1330 1332
          1332 1334 1334 1336 1336 1338
          1338 1340 1340 1342 1342 1344
          1344 1346 1346 1348 1348 1350
          1350 1352 1352 1354 1354 1356
          1356 1358 1358 1360 1360 1362
          1362 1364 1364 1366 1366 1368
          1368 1370 1370 1372 1372 1374
          1374 1376 1376 1378 1378 1380
          1380 1382 1382 1384 1384 1386
          1386 1388 1388 1390 1390 1392
          1392 1394 1394 1396 1396 1398
          1398 1400 1400 1402 1402 1404
          1404 1406 1406 1408 1408 1410
          1410 1412 1412 1414 1414 1416
          1416 1418 1418 1420 1420 1422
          1422 1424 1424 1426 1426 1428
          1428 1430 1430 1432 1432 1434
          1434 1436 1436 1438 1438 1440
          1440 1442 1442 1444 1444 1446
          1446 1448 1448 1450 1450 1452
          1452 1454 1454 1456 1456 1458
          1458 1460 1460 1462 1462 1464
          1464 1466 1466 1468 1468 1470
          1470 1472 1472 1474 1474 1476
          1476 1478 1478 1480 1480 1482
          1482 1484 1484 1486 1486 1488
          1488 1490 1490 1492 1492 1494
          1494 1496 1496 1498 1498 1500
          1500 1502 1502 1504 1504 1506
          1506 1508 1508 1510 1510 1512
          1512 1514 1514 1516 1516 1518
          1518 1520 1520 1522 1522 1524
          1524 1526 1526 1528 1528 1530
          1530 1532 1532 1534 1534 1536
          1536 1538 1538 1540 1540 1542
          1542 1544 1544 1546 1546 1548
          1548 1550 1550 1552 1552 1554
          1554 1556 1556 1558 1558 1560
          1560 1562 1562 1564 1564 1566
          1566 1568 1568 1570 1570 1572
          1572 1574 1574 1576 1576 1578
          1578 1580 1580 1582 1582 1584
          1584 1586 1586 1588 1588 1590
          1590 1592 1592 1594 1594 1596
          1596 1598 1598 1600 1600 1602
          1602 1604 1604 1606 1606 1608
          1608 1610 1610 1612 1612 1614
          1614 1616 1616 1618 1618 1620
          1620 1622 1622 1624 1624 1626
          1626 1628 1628 1630 1630 1632
          1632 1634 1634 1636 1636 1638
          1638 1640 1640 1642 1642 1644
          1644 1646 1646 1648 1648 1650
          1650 1652 1652 1654 1654 1656
          1656 1658 1658 1660 1660 1662
          1662 1664 1664 1666 1666 1668
          1668 1670 1670 1672 1672 1674
          1674 1676 1676 1678 1678 1680
          1680 1682 1682 1684 1684 1686
          1686 1688 1688 1690 1690 1692
          1692 1694 1694 1696 1696 1698
          1698 1700 1700 1702 1702 1704
          1704 1706 1706 1708 1708 1710
          1710 1712 1712 1714 1714 1716
          1716 1718 1718 1720 1720 1722
          1722 1724 1724 1726 1726 1728
          1728 1730 1730 1732 1732 1734
          1734 1736 1736 1738 1738 1740
          1740 1742 1742 1744 1744 1746
          1746 1748 1748 1750 1750 1752
          1752 1754 1754 1756 1756 1758
          1758 1760 1760 1762 1762 1764
          1764 1766 1766 1768 1768 1770
          1770 1772 1772 1774 1774 1776
          1776 1778 1778 1780 1780 1782
          1782 1784 1784 1786 1786 1788
          1788 1790 1790 1792 1792 1794
          1794 1796 1796 1798 1798 1800
          1800 1802 1802 1804 1804 1806
          1806 1808 1808
        </DataArray>
        <DataArray type="Float32" Name="Scalar" format="ascii" RangeMin="0" RangeMax="68.24547576904297">
          0 1.2061172 1.2061172 1.3352771 1.3352771 1.2248094
          1.2248094 1.3898994 1.3898994 1.3732047 1.3732047 1.4083805
          1.4083805 1.5328122 1.5328122 1.4104911 1.4104911 1.4411505
          1.4411505 1.4383234 1.4383234 1.5151738 1.5151738 1.441969
          1.441969 1.4488928 1.4488928 1.4443723 1.4443723 1.5117213
          1.5117213 1.4744031 1.4744031 1.4726934 1.4726934 1.4835606
          1.4835606 1.4841592 1.4841592 1.5343187 1.5343187 1.5059992
          1.5059992 1.5380641 1.5380641 1.6128134 1.6128134 1.5410475
          1.5410475 1.6003872 1.6003872 1.5800277 1.5800277 1.6454644
          1.6454644 1.583222 1.583222 1.6293206 1.6293206 1.6004611
          1.6004611 1.744585 1.744585 1.614413 1.614413 1.6241239
          1.6241239 1.6260169 1.6260169 1.6561874 1.6561874 1.6337756
          1.6337756 1.6791224 1.6791224 1.6457349 1.6457349 1.6704584
          1.6704584 1.6488689 1.6488689 1.6871785 1.6871785 1.6515815
          1.6515815 1.66111 1.66111 1.6760755 1.6760755 1.6748775
          1.6748775 1.686911 1.686911 1.695486 1.695486 1.7095065
          1.7095065 1.7751281 1.7751281 1.7510911 1.7510911 1.7973642
          1.7973642 1.7612532 1.7612532 1.759883 1.759883 1.768262
          1.768262 1.7882097 1.7882097 1.7829202 1.7829202 1.7692709
          1.7692709 1.7901376 1.7901376 1.8117481 1.8117481 1.7927709
          1.7927709 1.8323075 1.8323075 1.7958871 1.7958871 1.8813374
          1.8813374 1.7976717 1.7976717 1.9174576 1.9174576 1.8213074
          1.8213074 1.9062736 1.9062736 1.8360138 1.8360138 1.8250351
          1.8250351 1.8645201 1.8645201 1.8844031 1.8844031 1.8721695
          1.8721695 2.0619109 2.0619109 1.8835007 1.8835007 2.1439257
          2.1439257 1.9020157 1.9020157 2.3928583 2.3928583 1.9181916
          1.9181916 1.9179583 1.9179583 1.9380718 1.9380718 1.9211123
          1.9211123 1.9710093 1.9710093 2.0252795 2.0252795 2.041271
          2.041271 1.974004 1.974004 2.0483732 2.0483732 2.0532072
          2.0532072 2.0911922 2.0911922 2.04973 2.04973 2.100525
          2.100525 2.1928036 2.1928036 2.1170442 2.1170442 2.1280944
          2.1280944 2.1256425 2.1256425 2.119714 2.119714 2.1259127
          2.1259127 2.1288655 2.1288655 2.1952436 2.1952436 2.258503
          2.258503 2.235233 2.235233 2.1975677 2.1975677 2.2448802
          2.2448802 2.2691627 2.2691627 2.2723978 2.2723978 2.26018
          2.26018 2.3278189 2.3278189 2.3146825 2.3146825 2.344661
          2.344661 2.649203 2.649203 2.3493934 2.3493934 2.449603
          2.449603 2.3539248 2.3539248 2.4386218 2.4386218 2.3797724
          2.3797724 2.649147 2.649147 2.3908815 2.3908815 2.459852
          2.459852 2.3917813 2.3917813 2.4111137 2.4111137 2.4541242
          2.4541242 2.4201963 2.4201963 2.4771364 2.4771364 2.4757001
          2.4757001 2.4862256 2.4862256 2.589121 2.589121 2.5130398
          2.5130398 2.5643897 2.5643897 2.5671556 2.5671556 2.5376494
          2.5376494 2.5675972 2.5675972 2.6347287 2.6347287 2.571332
          2.571332 2.5808997 2.5808997 2.577648 2.577648 2.7188606
          2.7188606 2.6167033 2.6167033 2.6516936 2.6516936 2.6420329
          2.6420329 2.7336965 2.7336965 2.644368 2.644368 2.6957488
          2.6957488 2.6707895 2.6707895 2.6510978 2.6510978 2.6878974
          2.6878974 2.7660933 2.7660933 2.717445 2.717445 2.9353108
          2.9353108 2.7285721 2.7285721 2.722253 2.722253 2.7669704
          2.7669704 2.762317 2.762317 2.7924736 2.7924736 2.8505456
          2.8505456 2.7974591 2.7974591 3.1155756 3.1155756 2.82476
          2.82476 2.8007345 2.8007345 2.8542242 2.8542242 2.956951
          2.956951 2.8890123 2.8890123 2.8648446 2.8648446 2.9274342
          2.9274342 3.054858 3.054858 2.9392674 2.9392674 2.9619772
          2.9619772 2.9958668 2.9958668 2.9697065 2.9697065 3.019574
          3.019574 3.0651693 3.0651693 3.1378102 3.1378102 3.1264882
          3.1264882 3.2461815 3.2461815 3.395403 3.395403 3.3148444
          3.3148444 3.24887 3.24887 3.3174767 3.3174767 3.5968196
          3.5968196 3.4008486 3.4008486 3.356915 3.356915 3.478559
          3.478559 3.4615645 3.4615645 3.4954433 3.4954433 3.5050879
          3.5050879 3.5103362 3.5103362 3.9680061 3.9680061 3.5143535
          3.5143535 3.5339124 3.5339124 3.5315907 3.5315907 3.520696
          3.520696 3.5567012 3.5567012 3.630722 3.630722 3.5581512
          3.5581512 3.560019 3.560019 3.582132 3.582132 3.5608046
          3.5608046 3.583752 3.583752 3.5952914 3.5952914 3.7040913
          3.7040913 3.5944216 3.5944216 3.8152926 3.8152926 3.8399518
          3.8399518 3.9754949 3.9754949 3.815699 3.815699 4.01775
          4.01775 3.9885015 3.9885015 4.241788 4.241788 4.0848293
          4.0848293 4.271114 4.271114 4.246394 4.246394 4.322435
          4.322435 4.2798705 4.2798705 4.411979 4.411979 4.325643
          4.325643 4.413036 4.413036 4.4327064 4.4327064 4.4436073
          4.4436073 4.443175 4.443175 4.454611 4.454611 4.470815
          4.470815 4.46526 4.46526 4.474576 4.474576 4.465961
          4.465961 4.598348 4.598348 4.4822617 4.4822617 4.541127
          4.541127 4.4825144 4.4825144 4.4950047 4.4950047 4.4857993
          4.4857993 4.5461254 4.5461254 4.486689 4.486689 4.533106
          4.533106 4.4987807 4.4987807 4.558491 4.558491 4.8609233
          4.8609233 4.57029 4.57029 4.5827208 4.5827208 4.623608
          4.623608 5.104615 5.104615 4.646204 4.646204 4.655694
          4.655694 4.646559 4.646559 4.72786 4.72786 4.6731734
          4.6731734 4.6724825 4.6724825 4.71622 4.71622 5.7814856
          5.7814856 4.720064 4.720064 6.346629 6.346629 4.7396674
          4.7396674 4.90294 4.90294 4.779817 4.779817 4.757987
          4.757987 4.8070297 4.8070297 5.041696 5.041696 4.808709
          4.808709 4.8123913 4.8123913 4.81491 4.81491 4.8209243
          4.8209243 4.817782 4.817782 6.8415527 6.8415527 4.9046345
          4.9046345 4.836861 4.836861 5.0220942 5.0220942 4.971413
          4.971413 5.0234466 5.0234466 5.1419187 5.1419187 5.0288095
          5.0288095 5.033569 5.033569 5.030776 5.030776 5.034552
          5.034552 5.0461097 5.0461097 5.0332303 5.0332303 5.04633
          5.04633 5.2458944 5.2458944 5.0598707 5.0598707 5.0792136
          5.0792136 5.0962925 5.0962925 5.0987086 5.0987086 5.096566
          5.096566 5.149679 5.149679 5.284313 5.284313 5.106942
          5.106942 5.28889 5.28889 5.342498 5.342498 5.292572
          5.292572 5.333013 5.333013 5.3087 5.3087 5.306181
          5.306181 5.3166137 5.3166137 5.712588 5.712588 5.318953
          5.318953 5.468083 5.468083 5.324936 5.324936 5.3222966
          5.3222966 5.336911 5.336911 5.330812 5.330812 5.39206
          5.39206 5.4181075 5.4181075 5.4048805 5.4048805 5.5774593
          5.5774593 5.4328136 5.4328136 5.547637 5.547637 5.472756
          5.472756 5.679026 5.679026 5.475526 5.475526 5.4986258
          5.4986258 5.486397 5.486397 5.5615926 5.5615926 5.491324
          5.491324 5.548623 5.548623 5.494276 5.494276 5.6739836
          5.6739836 5.497607 5.497607 5.819039 5.819039 5.5127716
          5.5127716 6.010748 6.010748 5.5572667 5.5572667 5.5233397
          5.5233397 5.6302037 5.6302037 5.5362253 5.5362253 5.548895
          5.548895 5.5508347 5.5508347 5.5429587 5.5429587 5.5549073
          5.5549073 5.5732336 5.5732336 5.612778 5.612778 5.623069
          5.623069 5.623995 5.623995 5.8843923 5.8843923 5.6259627
          5.6259627 5.933699 5.933699 5.627516 5.627516 5.746215
          5.746215 5.6504593 5.6504593 5.6330442 5.6330442 5.6547832
          5.6547832 5.687626 5.687626 5.6648145 5.6648145 5.7159767
          5.7159767 5.6659055 5.6659055 5.6895337 5.6895337 5.677048
          5.677048 5.6810336 5.6810336 5.6875925 5.6875925 5.687342
          5.687342 5.7147994 5.7147994 5.9916835 5.9916835 5.7373166
          5.7373166 5.726122 5.726122 5.7696457 5.7696457 5.7388654
          5.7388654 5.7731586 5.7731586 6.0315785 6.0315785 5.7815604
          5.7815604 5.8436713 5.8436713 5.78427 5.78427 5.8087215
          5.8087215 5.7851973 5.7851973 6.1205325 6.1205325 5.8135076
          5.8135076 5.7923017 5.7923017 5.8184156 5.8184156 5.977777
          5.977777 5.835704 5.835704 5.8652387 5.8652387 5.836981
          5.836981 6.044321 6.044321 5.8985124 5.8985124 5.8906927
          5.8906927 5.902232 5.902232 5.952122 5.952122 5.928289
          5.928289 5.991999 5.991999 5.934986 5.934986 6.2807374
          6.2807374 5.93521 5.93521 5.9780035 5.9780035 5.9902596
          5.9902596 6.0550513 6.0550513 6.032344 6.032344 6.0328474
          6.0328474 6.0606313 6.0606313 6.0767126 6.0767126 6.189835
          6.189835 6.508789 6.508789 6.1938925 6.1938925 6.207172
          6.207172 6.2257957 6.2257957 6.3606935 6.3606935 6.246158
          6.246158 6.455857 6.455857 6.259711 6.259711 6.7759953
          6.7759953 6.2740297 6.2740297 6.314176 6.314176 6.279135
          6.279135 6.3612704 6.3612704 6.3117065 6.3117065 6.297153
          6.297153 6.34652 6.34652 6.375492 6.375492 6.402103
          6.402103 6.6484995 6.6484995 6.4637003 6.4637003 8.66318
          8.66318 6.5382867 6.5382867 6.492573 6.492573 6.5594025
          6.5594025 6.82141 6.82141 6.5741215 6.5741215 6.5780244
          6.5780244 6.693467 6.693467 6.5852394 6.5852394 6.7181735
          6.7181735 6.7182593 6.7182593 6.7325177 6.7325177 6.7416954
          6.7416954 6.7924933 6.7924933 6.7599096 6.7599096 6.8422155
          6.8422155 6.8768234 6.8768234 6.8731756 6.8731756 7.1416154
          7.1416154 6.895505 6.895505 6.8743777 6.8743777 6.903689
          6.903689 6.900165 6.900165 6.9353757 6.9353757 6.999132
          6.999132 6.95445 6.95445 7.0793905 7.0793905 6.975126
          6.975126 7.011376 7.011376 6.9937134 6.9937134 9.956791
          9.956791 7.001959 7.001959 7.003747 7.003747 7.079513
          7.079513 7.6889997 7.6889997 7.1028147 7.1028147 7.446102
          7.446102 7.105117 7.105117 7.427885 7.427885 7.123373
          7.123373 7.109219 7.109219 7.128239 7.128239 8.41713
          8.41713 7.1412506 7.1412506 7.6985154 7.6985154 7.191998
          7.191998 7.2084546 7.2084546 7.214081 7.214081 7.1926627
          7.1926627 7.233288 7.233288 7.530055 7.530055 7.2540393
          7.2540393 7.429171 7.429171 7.2642827 7.2642827 7.2883844
          7.2883844 7.2801223 7.2801223 7.519641 7.519641 7.294513
          7.294513 7.4244337 7.4244337 7.330008 7.330008 7.726728
          7.726728 7.402677 7.402677 7.3407564 7.3407564 7.4118853
          7.4118853 7.494139 7.494139 7.4351554 7.4351554 7.4385056
          7.4385056 7.447213 7.447213 7.5791802 7.5791802 7.4504876
          7.4504876 9.04947 9.04947 7.4997597 7.4997597 9.681557
          9.681557 7.5322084 7.5322084 7.715029 7.715029 7.5463696
          7.5463696 7.5486565 7.5486565 7.550958 7.550958 7.90166
          7.90166 7.574028 7.574028 7.558784 7.558784 7.595372
          7.595372 9.621111 9.621111 7.617755 7.617755 7.6680107
          7.6680107 7.660862 7.660862 7.6592045 7.6592045 7.6574306
          7.6574306 7.6712656 7.6712656 7.72442 7.72442 7.6766005
          7.6766005 7.9702215 7.9702215 7.724246 7.724246 7.741529
          7.741529 7.7310777 7.7310777 7.750006 7.750006 7.748849
          7.748849 7.7322626 7.7322626 7.7689595 7.7689595 7.8614874
          7.8614874 7.7823954 7.7823954 8.528778 8.528778 7.7885656
          7.7885656 7.7824025 7.7824025 7.8007326 7.8007326 7.803094
          7.803094 7.842671 7.842671 7.83744 7.83744 7.8499084
          7.8499084 7.9163837 7.9163837 7.868371 7.868371 7.8735414
          7.8735414 7.8942204 7.8942204 7.879943 7.879943 7.9070945
          7.9070945 8.049059 8.049059 7.916428 7.916428 8.250798
          8.250798 7.9370036 7.9370036 8.034536 8.034536 7.937634
          7.937634 7.981675 7.981675 7.951302 7.951302 7.9468236
          7.9468236 8.054027 8.054027 8.001245 8.001245 8.090862
          8.090862 8.110561 8.110561 8.104385 8.104385 8.198743
          8.198743 8.107291 8.107291 8.1459675 8.1459675 8.148685
          8.148685 8.120934 8.120934 8.1531105 8.1531105 8.149561
          8.149561 8.157266 8.157266 8.222989 8.222989 8.163954
          8.163954 8.175237 8.175237 8.169832 8.169832 8.167199
          8.167199 8.171395 8.171395 8.19296 8.19296 8.19574
          8.19574 8.267473 8.267473 8.215952 8.215952 8.390377
          8.390377 8.239216 8.239216 8.26793 8.26793 8.254175
          8.254175 8.663513 8.663513 8.268416 8.268416 8.470007
          8.470007 8.291035 8.291035 8.335238 8.335238 8.300128
          8.300128 8.319245 8.319245 8.383213 8.383213 9.23866
          9.23866 8.408413 8.408413 8.463886 8.463886 8.550154
          8.550154 8.42464 8.42464 8.609183 8.609183 8.61674
          8.61674 8.663005 8.663005 9.349618 9.349618 8.68032
          8.68032 9.419129 9.419129 8.710261 8.710261 8.832481
          8.832481 8.719669 8.719669 8.869922 8.869922 8.725019
          8.725019 8.752928 8.752928 8.747863 8.747863 8.786792
          8.786792 8.841358 8.841358 8.81994 8.81994 8.894378
          8.894378 8.843575 8.843575 8.921509 8.921509 8.921291
          8.921291 8.989695 8.989695 9.045983 9.045983 9.025247
          9.025247 8.997574 8.997574 9.0568695 9.0568695 10.701988
          10.701988 9.09978 9.09978 9.061424 9.061424 9.210446
          9.210446 9.113252 9.113252 9.231258 9.231258 9.281575
          9.281575 9.286742 9.286742 9.236702 9.236702 9.301617
          9.301617 9.326552 9.326552 9.311807 9.311807 9.39
          9.39 9.321024 9.321024 9.884208 9.884208 10.824389
          10.824389 9.3530655 9.3530655 11.006116 11.006116 11.0301075
          11.0301075 9.489626 9.489626 9.360371 9.360371 11.006549
          11.006549 13.370397 13.370397 9.510695 9.510695 9.630128
          9.630128 11.019878 11.019878 11.020905 11.020905 9.513497
          9.513497 9.541027 9.541027 11.020864 11.020864 11.071133
          11.071133 9.518465 9.518465 9.53616 9.53616 11.449314
          11.449314 11.060552 11.060552 9.596997 9.596997 9.531327
          9.531327 12.523574 12.523574 11.488567 11.488567 9.5970955
          9.5970955 9.597071 9.597071 12.713637 12.713637 12.590629
          12.590629 11.552501 11.552501 11.557754 11.557754 9.597681
          9.597681 9.627355 9.627355 13.019063 13.019063 12.944134
          12.944134 11.588066 11.588066 11.602586 11.602586 9.604426
          9.604426 9.66019 9.66019 11.602738 11.602738 11.650944
          11.650944 9.687762 9.687762 9.699407 9.699407 12.010648
          12.010648 12.321039 12.321039 9.788736 9.788736 9.732115
          9.732115 13.60547 13.60547 12.137151 12.137151 9.822437
          9.822437 9.809565 9.809565 9.845278 9.845278 10.232651
          10.232651 9.847541 9.847541 9.849565 9.849565 9.851692
          9.851692 11.294858 11.294858 9.852381 9.852381 10.794349
          10.794349 9.869432 9.869432 10.212453 10.212453 9.973866
          9.973866 9.879655 9.879655 9.980095 9.980095 9.988882
          9.988882 10.0275 10.0275 9.994484 9.994484 10.124897
          10.124897 10.030449 10.030449 10.131993 10.131993 10.268698
          10.268698 10.16151 10.16151 10.569616 10.569616 10.165716
          10.165716 10.401044 10.401044 10.296734 10.296734 10.230895
          10.230895 10.306073 10.306073 10.476504 10.476504 10.309452
          10.309452 11.05258 11.05258 10.377062 10.377062 10.469399
          10.469399 10.46216 10.46216 10.392784 10.392784 10.474993
          10.474993 10.884015 10.884015 10.484178 10.484178 10.567823
          10.567823 10.486502 10.486502 10.500016 10.500016 10.517315
          10.517315 10.504135 10.504135 10.595508 10.595508 10.686014
          10.686014 10.609774 10.609774 10.63296 10.63296 10.629514
          10.629514 11.016931 11.016931 10.643754 10.643754 10.660614
          10.660614 10.648209 10.648209 10.679706 10.679706 10.677293
          10.677293 10.720416 10.720416 10.707585 10.707585 11.884474
          11.884474 10.749454 10.749454 10.709632 10.709632 10.775748
          10.775748 10.773008 10.773008 10.7761545 10.7761545 10.802999
          10.802999 10.868616 10.868616 10.820682 10.820682 10.923824
          10.923824 10.889813 10.889813 10.966222 10.966222 10.967636
          10.967636 10.982369 10.982369 11.240583 11.240583 11.015669
          11.015669 11.067912 11.067912 11.028223 11.028223 11.09837
          11.09837 11.077713 11.077713 11.081717 11.081717 11.085859
          11.085859 11.115356 11.115356 11.115618 11.115618 11.144845
          11.144845 11.153462 11.153462 11.153996 11.153996 11.270831
          11.270831 11.171693 11.171693 12.345563 12.345563 11.296374
          11.296374 14.108878 14.108878 12.784689 12.784689 11.332869
          11.332869 11.327885 11.327885 11.400091 11.400091 12.384816
          12.384816 11.40898 11.40898 11.415156 11.415156 11.421714
          11.421714 11.431299 11.431299 11.443501 11.443501 11.732578
          11.732578 11.533262 11.533262 11.585252 11.585252 11.718233
          11.718233 11.568564 11.568564 11.747549 11.747549 11.726458
          11.726458 11.874539 11.874539 11.782038 11.782038 11.983095
          11.983095 11.888157 11.888157 12.070298 12.070298 12.692009
          12.692009 12.102314 12.102314 12.213033 12.213033 12.112726
          12.112726 12.13524 12.13524 12.121212 12.121212 12.12126
          12.12126 12.430148 12.430148 12.132746 12.132746 12.930503
          12.930503 13.092018 13.092018 13.209712 13.209712 12.938929
          12.938929 13.548609 13.548609 13.50936 13.50936 13.570204
          13.570204 14.037272 14.037272 13.653094 13.653094 13.587154
          13.587154 13.693816 13.693816 13.723626 13.723626 14.07439
          14.07439 13.703501 13.703501 14.196809 14.196809 14.092619
          14.092619 14.458309 14.458309 15.499604 15.499604 14.644601
          14.644601 14.658724 14.658724 14.745099 14.745099 15.545675
          15.545675 15.0797615 15.0797615 14.781909 14.781909 15.1004505
          15.1004505 15.951358 15.951358 15.238404 15.238404 15.26054
          15.26054 17.29499 17.29499 16.271904 16.271904 15.260663
          15.260663 15.333955 15.333955 17.423058 17.423058 17.32163
          17.32163 15.5302 15.5302 15.297105 15.297105 17.450363
          17.450363 17.448296 17.448296 15.952314 15.952314 15.542779