<VTKFile type="UnstructuredGrid" version="1.0" byte_order="LittleEndian" header_type="UInt64">
  <UnstructuredGrid>
    <Piece NumberOfPoints="2269" NumberOfCells="1698">
      <PointData>
        <DataArray type="Float32" Name="Scalar" format="ascii" RangeMin="0" RangeMax="70.75894927978516">
          0 0.335739 0.335739 0.47931233 0.47931233 0.33920565
          0.33920565 1.2119683 1.2119683 0.49951902 0.49951902 1.231539
          1.231539 1.3747559 1.3747559 1.2801306 1.2801306 1.2601413
          1.2601413 1.3211198 1.3211198 1.308743 1.308743 1.3308891
          1.3308891 1.3340673 1.3340673 1.3359789 1.3359789 1.3471323
          1.3471323 1.3373747 1.3373747 1.4073904 1.4073904 1.3445553
          1.3445553 1.3704879 1.3704879 1.3541018 1.3541018 1.3588433
          1.3588433 1.3578761 1.3578761 1.3828403 1.3828403 1.4165484
          1.4165484 1.4327601 1.4327601 1.4301323 1.4301323 1.4232322
          1.4232322 1.4714673 1.4714673 1.4526254 1.4526254 1.4842798
          1.4842798 1.5040319 1.5040319 1.4853852 1.4853852 1.5550777
          1.5550777 1.5393298 1.5393298 1.4909837 1.4909837 1.5796353
          1.5796353 1.5482601 1.5482601 1.5912924 1.5912924 1.6983879
          1.6983879 1.5983828 1.5983828 1.633591 1.633591 1.6721158
          1.6721158 1.6682336 1.6682336 1.694527 1.694527 1.7138815
          1.7138815 1.7036371 1.7036371 2.1174548 2.1174548 1.7176023
          1.7176023 1.7889833 1.7889833 1.751665 1.751665 1.7931193
          1.7931193 1.758131 1.758131 1.7640208 1.7640208 1.7668227
          1.7668227 1.9036804 1.9036804 1.7821572 1.7821572 1.9022423
          1.9022423 1.793214 1.793214 1.8188349 1.8188349 1.8355405
          1.8355405 1.8308645 1.8308645 1.872457 1.872457 2.0301218
          2.0301218 1.8760196 1.8760196 2.180581 2.180581 1.9566344
          1.9566344 1.8892033 1.8892033 1.9580913 1.9580913 2.0660148
          2.0660148 1.9995784 1.9995784 1.9980414 1.9980414 2.0188925
          2.0188925 2.0206704 2.0206704 2.0520053 2.0520053 2.1252024
          2.1252024 2.0815632 2.0815632 2.1161466 2.1161466 2.1000817
          2.1000817 2.1930447 2.1930447 2.1171637 2.1171637 2.1057737
          2.1057737 2.173867 2.173867 2.1252422 2.1252422 2.185018
          2.185018 2.1792767 2.1792767 2.369989 2.369989 2.212026
          2.212026 2.4078476 2.4078476 2.4866195 2.4866195 2.4402394
          2.4402394 2.469031 2.469031 2.532241 2.532241 2.6001015
          2.6001015 2.594447 2.594447 2.56048 2.56048 2.613873
          2.613873 2.656889 2.656889 2.6197197 2.6197197 2.6154704
          2.6154704 2.6788077 2.6788077 2.6709402 2.6709402 2.710605
          2.710605 2.704841 2.704841 2.725806 2.725806 2.8446283
          2.8446283 2.7317626 2.7317626 2.748 2.748 2.7512236
          2.7512236 3.0669332 3.0669332 2.7760386 2.7760386 3.0080423
          3.0080423 2.8483572 2.8483572 3.1350152 3.1350152 2.8842437
          2.8842437 2.865816 2.865816 2.9085548 2.9085548 2.886038
          2.886038 2.951254 2.951254 2.926202 2.926202 2.952481
          2.952481 2.964238 2.964238 2.97768 2.97768 3.0591912
          3.0591912 2.992653 2.992653 2.9779522 2.9779522 3.0270958
          3.0270958 2.9956477 2.9956477 3.1417875 3.1417875 3.0778484
          3.0778484 3.150913 3.150913 3.408913 3.408913 3.1940045
          3.1940045 3.2563014 3.2563014 3.1986744 3.1986744 3.5119164
          3.5119164 3.2048106 3.2048106 3.3866904 3.3866904 3.8534
          3.8534 3.3509748 3.3509748 3.90652 3.90652 3.8868337
          3.8868337 3.935636 3.935636 3.9767344 3.9767344 4.0197535
          4.0197535 4.412639 4.412639 4.1493683 4.1493683 4.055487
          4.055487 4.1521187 4.1521187 6.4380794 6.4380794 4.211678
          4.211678 4.154628 4.154628 4.2455997 4.2455997 5.2932014
          5.2932014 4.364441 4.364441 4.2473645 4.2473645 4.3788066
          4.3788066 4.371733 4.371733 4.5826354 4.5826354 4.815894
          4.815894 4.661156 4.661156 4.589025 4.589025 4.7201242
          4.7201242 5.592316 5.592316 4.7849126 4.7849126 4.722847
          4.722847 4.8139477 4.8139477 4.862214 4.862214 4.8409925
          4.8409925 4.8236427 4.8236427 4.848024 4.848024 4.8929234
          4.8929234 4.854943 4.854943 4.8971615 4.8971615 4.899962
          4.899962 5.5809035 5.5809035 4.929975 4.929975 4.9101243
          4.9101243 4.9585767 4.9585767 4.9995804 4.9995804 4.979647
          4.979647 4.987045 4.987045 5.0385537 5.0385537 4.9934688
          4.9934688 5.0569053 5.0569053 5.147499 5.147499 5.070683
          5.070683 5.1401353 5.1401353 5.094054 5.094054 5.1116376
          5.1116376 5.1721067 5.1721067 5.158628 5.158628 5.176888
          5.176888 5.3283134 5.3283134 5.244997 5.244997 5.3184705
          5.3184705 5.2733345 5.2733345 5.343309 5.343309 5.3197465
          5.3197465 5.277722 5.277722 5.4462485 5.4462485 5.797005
          5.797005 5.4674664 5.4674664 5.5190773 5.5190773 5.48541
          5.48541 5.515032 5.515032 5.514721 5.514721 5.505516
          5.505516 5.516958 5.516958 5.551031 5.551031 5.5446434
          5.5446434 5.5281982 5.5281982 5.566692 5.566692 6.038413
          6.038413 5.571824 5.571824 5.847072 5.847072 5.5768447
          5.5768447 5.6164265 5.6164265 5.5856285 5.5856285 5.6318645
          5.6318645 5.5863132 5.5863132 5.7100677 5.7100677 5.5896244
          5.5896244 5.6484895 5.6484895 5.5948706 5.5948706 5.5952945
          5.5952945 5.646631 5.646631 5.7782874 5.7782874 5.65781
          5.65781 5.667516 5.667516 5.6826663 5.6826663 6.0095267
          6.0095267 5.6886816 5.6886816 5.9217944 5.9217944 5.7111835
          5.7111835 5.761795 5.761795 5.713673 5.713673 5.734579
          5.734579 5.7181206 5.7181206 5.719376 5.719376 5.74553
          5.74553 5.8967447 5.8967447 5.745665 5.745665 6.1032715
          6.1032715 5.792109 5.792109 5.865257 5.865257 5.7964754
          5.7964754 5.8932767 5.8932767 5.8012576 5.8012576 5.9955397
          5.9955397 5.805127 5.805127 5.8031106 5.8031106 5.828675
          5.828675 7.8321943 7.8321943 5.839721 5.839721 5.847175
          5.847175 5.8415823 5.8415823 5.90027 5.90027 5.8742385
          5.8742385 5.8912506 5.8912506 5.902454 5.902454 5.893666
          5.893666 5.94364 5.94364 6.017926 6.017926 5.944195
          5.944195 6.308291 6.308291 5.9715323 5.9715323 6.0056887
          6.0056887 5.9726124 5.9726124 5.9755807 5.9755807 5.99684
          5.99684 6.364237 6.364237 6.0150948 6.0150948 6.183862
          6.183862 6.0813494 6.0813494 6.160002 6.160002 6.084252
          6.084252 6.879664 6.879664 6.088597 6.088597 6.0911303
          6.0911303 6.0902925 6.0902925 6.5429835 6.5429835 6.106057
          6.106057 6.095629 6.095629 6.112862 6.112862 6.137924
          6.137924 6.1153884 6.1153884 6.1138644 6.1138644 6.1180778
          6.1180778 6.2957454 6.2957454 6.135286 6.135286 6.2621393
          6.2621393 6.1357937 6.1357937 6.149417 6.149417 6.5276933
          6.5276933 6.139636 6.139636 6.830571 6.830571 6.779508
          6.779508 6.173946 6.173946 6.1770325 6.1770325 6.1854205
          6.1854205 6.232883 6.232883 6.186356 6.186356 6.299121
          6.299121 6.1976843 6.1976843 6.2123046 6.2123046 6.212904
          6.212904 6.3060765 6.3060765 6.221471 6.221471 6.373602
          6.373602 6.2283425 6.2283425 6.3153796 6.3153796 6.243899
          6.243899 6.2537265 6.2537265 8.0645895 8.0645895 6.2479687
          6.2479687 8.684548 8.684548 8.127486 8.127486 6.264941
          6.264941 6.2503037 6.2503037 6.3110614 6.3110614 6.4929748
          6.4929748 6.313289 6.313289 6.4505973 6.4505973 6.324797
          6.324797 6.3495374 6.3495374 6.3378005 6.3378005 6.3324103
          6.3324103 6.3398814 6.3398814 6.3412576 6.3412576 6.347454
          6.347454 6.438744 6.438744 6.357402 6.357402 6.6911273
          6.6911273 6.3681984 6.3681984 6.515781 6.515781 6.3828793
          6.3828793 6.6249795 6.6249795 6.396892 6.396892 6.520814
          6.520814 6.4083824 6.4083824 6.8471613 6.8471613 6.409981
          6.409981 6.491312 6.491312 6.416584 6.416584 6.423466
          6.423466 6.429881 6.429881 6.468714 6.468714 6.4704943
          6.4704943 6.9884524 6.9884524 6.5138917 6.5138917 6.5045753
          6.5045753 6.514371 6.514371 6.8556013 6.8556013 6.526251
          6.526251 7.0612874 7.0612874 6.528743 6.528743 6.5295024
          6.5295024 6.5324683 6.5324683 6.5576434 6.5576434 6.534248
          6.534248 6.631953 6.631953 6.5655117 6.5655117 6.7202926
          6.7202926 6.5726433 6.5726433 6.6173706 6.6173706 6.5893283
          6.5893283 6.730013 6.730013 6.6011314 6.6011314 6.594489
          6.594489 6.603732 6.603732 6.6043706 6.6043706 6.6138525
          6.6138525 6.641448 6.641448 6.648409 6.648409 6.73123
          6.73123 6.6584716 6.6584716 6.6735516 6.6735516 6.658534
          6.658534 7.749323 7.749323 6.681786 6.681786 6.664515
          6.664515 6.664122 6.664122 8.134891 8.134891 7.761538
          7.761538 6.6674523 6.6674523 6.962177 6.962177 9.003773
          9.003773 8.445175 8.445175 6.6706634 6.6706634 6.826235
          6.826235 6.6786995 6.6786995 6.8437552 6.8437552 6.681247
          6.681247 6.7078547 6.7078547 6.68498 6.68498 6.7374988
          6.7374988 6.724621 6.724621 6.8814025 6.8814025 6.728962
          6.728962 6.7336535 6.7336535 6.7474637 6.7474637 6.9926066
          6.9926066 6.774929 6.774929 7.037079 7.037079 6.7940636
          6.7940636 7.631136 7.631136 7.069489 7.069489 6.815548
          6.815548 7.309573 7.309573 7.2623096 7.2623096 6.837442
          6.837442 6.8322196 6.8322196 6.862155 6.862155 6.9035707
          6.9035707 6.871386 6.871386 6.904833 6.904833 6.8832874
          6.8832874 7.0110393 7.0110393 6.9246645 6.9246645 6.930183
          6.930183 6.949239 6.949239 7.058893 7.058893 6.973784
          6.973784 7.115506 7.115506 7.0142584 7.0142584 7.036298
          7.036298 7.052089 7.052089 7.079523 7.079523 7.1142397
          7.1142397 7.0624948 7.0624948 7.146345 7.146345 7.265949
          7.265949 7.1832266 7.1832266 7.1511564 7.1511564 7.281793
          7.281793 7.1555576 7.1555576 7.941226 7.941226 7.1569347
          7.1569347 7.191063 7.191063 7.1574883 7.1574883 7.1928935
          7.1928935 7.1579857 7.1579857 7.4882364 7.4882364 7.192732
          7.192732 7.182624 7.182624 7.229034 7.229034 7.3826118
          7.3826118 7.284137 7.284137 7.82009 7.82009 7.303767
          7.303767 8.387162 8.387162 7.313075 7.313075 7.9521046
          7.9521046 7.3851724 7.3851724 7.3181477 7.3181477 7.3883944
          7.3883944 7.6722217 7.6722217 7.407483 7.407483 7.753436
          7.753436 7.4094296 7.4094296 7.622709 7.622709 7.4374585
          7.4374585 7.5396733 7.5396733 7.517549 7.517549 7.5135446
          7.5135446 7.5358577 7.5358577 7.696076 7.696076 7.5665774
          7.5665774 7.653753 7.653753 7.5671754 7.5671754 7.6599007
          7.6599007 7.6306763 7.6306763 7.5892944 7.5892944 7.654009
          7.654009 7.64931 7.64931 7.6931357 7.6931357 7.6751003
          7.6751003 7.6997924 7.6997924 8.048706 8.048706 7.7354703
          7.7354703 8.265623 8.265623 7.746721 7.746721 8.069525
          8.069525 7.764517 7.764517 7.7919335 7.7919335 7.7913837
          7.7913837 7.7860484 7.7860484 7.7961116 7.7961116 7.952138
          7.952138 7.8193703 7.8193703 8.179189 8.179189 7.827133
          7.827133 7.826703 7.826703 7.829851 7.829851 8.296235
          8.296235 7.834287 7.834287 7.8717184 7.8717184 7.841258
          7.841258 8.280274 8.280274 7.9231577 7.9231577 8.328903
          8.328903 7.970035 7.970035 8.223408 8.223408 8.051477
          8.051477 8.488885 8.488885 8.062593 8.062593 8.116886
          8.116886 8.08238 8.08238 8.096939 8.096939 8.166259
          8.166259 8.094454 8.094454 8.210694 8.210694 8.285909
          8.285909 8.225273 8.225273 8.2114935 8.2114935 8.226956
          8.226956 8.403334 8.403334 8.234285 8.234285 8.28415
          8.28415 8.2444315 8.2444315 8.341327 8.341327 8.247347
          8.247347 8.303472 8.303472 8.261228 8.261228 8.481598
          8.481598 8.264579 8.264579 8.459823 8.459823 8.271651
          8.271651 8.335627 8.335627 8.280106 8.280106 8.354131
          8.354131 9.986909 9.986909 8.288157 8.288157 10.101404
          10.101404 10.0556755 10.0556755 8.295954 8.295954 8.290829
          8.290829 10.42808 10.42808 10.152364 10.152364 8.33091
          8.33091 8.373577 8.373577 8.354639 8.354639 8.345629
          8.345629 8.38201 8.38201 8.583397 8.583397 8.386656
          8.386656 8.504833 8.504833 8.397274 8.397274 8.401188
          8.401188 8.416194 8.416194 8.581691 8.581691 8.417967
          8.417967 8.437338 8.437338 8.42447 8.42447 8.591238
          8.591238 8.47229 8.47229 8.51191 8.51191 8.525423
          8.525423 8.763539 8.763539 8.537918 8.537918 8.649743
          8.649743 8.566457 8.566457 8.545786 8.545786 8.571091
          8.571091 8.677842 8.677842 8.580291 8.580291 8.593319
          8.593319 8.597065 8.597065 8.714992 8.714992 8.612532
          8.612532 8.6690645 8.6690645 8.619601 8.619601 9.212625
          9.212625 8.627639 8.627639 8.774347 8.774347 8.66248
          8.66248 8.689831 8.689831 8.680032 8.680032 8.666508
          8.666508 8.74807 8.74807 8.889385 8.889385 8.771033
          8.771033 8.770192 8.770192 8.775169 8.775169 8.91132
          8.91132 8.823189 8.823189 8.855529 8.855529 8.823752
          8.823752 9.324618 9.324618 8.824751 8.824751 8.855796
          8.855796 8.892073 8.892073 8.832201 8.832201 8.909311
          8.909311 9.023899 9.023899 8.951549 8.951549 8.92801
          8.92801 8.961668 8.961668 9.032416 9.032416 8.963635
          8.963635 8.964635 8.964635 9.011313 9.011313 9.003063
          9.003063 9.054675 9.054675 9.135103 9.135103 9.094553
          9.094553 9.100105 9.100105 9.066509 9.066509 9.108226
          9.108226 9.626962 9.626962 9.144944 9.144944 9.166092
          9.166092 9.145316 9.145316 9.185425 9.185425 9.157787
          9.157787 9.215386 9.215386 9.158839 9.158839 9.2350235
          9.2350235 9.183736 9.183736 9.306785 9.306785 9.18494
          9.18494 9.367779 9.367779 9.197173 9.197173 9.405046
          9.405046 9.229851 9.229851 9.199139 9.199139 9.239152
          9.239152 9.356703 9.356703 9.244814 9.244814 10.392252
          10.392252 9.28128 9.28128 11.058534 11.058534 9.282573
          9.282573 9.298899 9.298899 9.282647 9.282647 9.322043
          9.322043 9.284818 9.284818 9.287011 9.287011 9.29362
          9.29362 9.2911005 9.2911005 9.317486 9.317486 9.313978
          9.313978 9.369179 9.369179 9.321563 9.321563 9.458132
          9.458132 9.435486 9.435486 9.473187 9.473187 9.607469
          9.607469 9.473369 9.473369 9.478549 9.478549 9.488732
          9.488732 9.504405 9.504405 9.492793 9.492793 9.491077
          9.491077 9.495509 9.495509 9.58248 9.58248 9.496785
          9.496785 9.496897 9.496897 9.506844 9.506844 9.684879
          9.684879 9.521764 9.521764 9.633754 9.633754 9.544409
          9.544409 9.535955 9.535955 9.546439 9.546439 9.974409
          9.974409 9.644801 9.644801 10.113934 10.113934 9.669559
          9.669559 9.739024 9.739024 9.689229 9.689229 9.882176
          9.882176 9.692116 9.692116 10.70306 10.70306 9.699743
          9.699743 12.129775 12.129775 9.701248 9.701248 9.819987
          9.819987 9.708025 9.708025 9.839721 9.839721 9.76095
          9.76095 9.721008 9.721008 9.824175 9.824175 9.785424
          9.785424 9.865419 9.865419 9.830263 9.830263 9.869888
          9.869888 11.098625 11.098625 9.871903 9.871903 9.871004
          9.871004 9.873612 9.873612 9.884209 9.884209 9.87404
          9.87404 9.893212 9.893212 9.944081 9.944081 9.877634
          9.877634 10.010857 10.010857 10.076607 10.076607 11.027618
          11.027618 10.011083 10.011083 11.031748 11.031748 11.51298
          11.51298 10.016231 10.016231 10.023152 10.023152 11.039716
          11.039716 11.04272 11.04272 10.025203 10.025203 10.069527
          10.069527 11.048318 11.048318 11.06147 11.06147 10.039535
          10.039535 10.113795 10.113795 11.049243 11.049243 11.049176
          11.049176 10.051978 10.051978 10.056494 10.056494 11.071087
          11.071087 11.073189 11.073189 10.084322 10.084322 10.091841
          10.091841 11.1656065 11.1656065 11.071183 11.071183 10.159739
          10.159739 10.131286 10.131286 11.208268 11.208268 11.166025
          11.166025 10.838098 10.838098 10.197674 10.197674 11.235067
          11.235067 11.292386 11.292386 10.854331 10.854331 10.851611
          10.851611 10.2144575 10.2144575 10.259551 10.259551 11.241569
          11.241569 11.277199 11.277199 10.214645 10.214645 10.22514
          10.22514 11.247819 11.247819 11.251506 11.251506 10.240408
          10.240408 10.221528 10.221528 11.452799 11.452799 11.600582
          11.600582 10.278318 10.278318 10.242132 10.242132 11.4566965
          11.4566965 11.472764 11.472764 10.288979 10.288979 10.418926
          10.418926 11.760066 11.760066 11.529016 11.529016 10.340066
          10.340066 10.530749 10.530749 10.344954 10.344954 10.359142
          10.359142 10.384105 10.384105 10.694428 10.694428 10.431184
          10.431184 10.398778 10.398778 11.236405 11.236405 11.191424
          11.191424 10.476729 10.476729 14.12002 14.12002 11.287043
          11.287043 12.666609 12.666609 11.619767 11.619767 11.301094
          11.301094 10.4970875 10.4970875 10.515074 10.515074 11.315655
          11.315655 11.9822445 11.9822445 12.216709 12.216709 12.0235195
          12.0235195 10.499898 10.499898 10.640747 10.640747 11.577836
          11.577836 11.425367 11.425367 12.484327 12.484327 13.088321
          13.088321 10.555954 10.555954 10.508499 10.508499 12.101647
          12.101647 11.617442 11.617442 12.502801 12.502801 13.383776
          13.383776 10.571637 10.571637 10.704649 10.704649 12.503478
          12.503478 12.211888 12.211888 12.26299 12.26299 12.296126
          12.296126 13.727066 13.727066 13.3446 13.3446 10.621818
          10.621818 10.596786 10.596786 12.2651005 12.2651005 12.593695
          12.593695 10.645031 10.645031 11.109417 11.109417 12.354814
          12.354814 12.5160055 12.5160055 14.351619 14.351619 14.151228
          14.151228 10.773608 10.773608 11.230509 11.230509 12.452481
          12.452481 12.361466 12.361466 14.530695 14.530695 14.439398
          14.439398 10.778921 10.778921 12.002499 12.002499 13.168341
          13.168341 11.232647 11.232647 12.959163 12.959163 12.528243
          12.528243 10.858579 10.858579 10.830976 10.830976 13.308827
          13.308827 13.241709 13.241709 14.276345 14.276345 13.074028
          13.074028 13.653234 13.653234 13.116175 13.116175 10.882129
          10.882129 10.898731 10.898731 13.330673 13.330673 13.321033
          13.321033 14.5395 14.5395 13.982699 13.982699 10.891145
          10.891145 10.906487 10.906487 13.468711 13.468711 13.343323
          13.343323 15.394122 15.394122 14.935592 14.935592 10.91944
          10.91944 10.981412 10.981412 13.558237 13.558237 13.518287
          13.518287 15.510149 15.510149 15.415892 15.415892 10.921392
          10.921392 10.949945 10.949945 14.158028 14.158028 10.932325
          10.932325 14.451643 14.451643 14.235875 14.235875 10.991915
          10.991915 11.032168 11.032168 10.993119 10.993119 11.166087
          11.166087 11.029041 11.029041 11.00091 11.00091 11.031403
          11.031403 11.0304365 11.0304365 11.036991 11.036991 11.038951
          11.038951 11.099299 11.099299 11.486124 11.486124 11.134459
          11.134459 11.14898 11.14898 11.142085 11.142085 11.188753
          11.188753 11.144825 11.144825 11.153378 11.153378 11.20756
          11.20756 11.192224 11.192224 11.241628 11.241628 11.710005
          11.710005 11.270358 11.270358 11.358506 11.358506 11.281247
          11.281247 11.30634 11.30634 11.357838 11.357838 11.341378
          11.341378 11.412692 11.412692 11.369315 11.369315 11.42308
          11.42308 11.453827 11.453827 11.497092 11.497092 11.453842
          11.453842 11.578566 11.578566 11.512895 11.512895 11.683011
          11.683011 11.618263 11.618263 11.921576 11.921576 11.701526
          11.701526 11.967185 11.967185 12.04513 12.04513 12.076822
          12.076822 12.034856 12.034856 12.090863 12.090863 12.50225
          12.50225 12.105045 12.105045 12.146841 12.146841 12.823345
          12.823345 12.732549 12.732549 12.148793 12.148793 12.113857
          12.113857 15.436381 15.436381 14.406193 14.406193 12.21506
          12.21506 12.347572 12.347572 17.87315 17.87315 16.176216
          16.176216 12.25178 12.25178 12.240543 12.240543 19.115791
          19.115791 18.51063 18.51063 12.337205 12.337205 12.354549
          12.354549 12.483353 12.483353 12.507225 12.507225 13.105576
          13.105576 12.568382 12.568382 13.136345 13.136345 13.753218
          13.753218 13.367322 13.367322 13.142809 13.142809 13.542397
          13.542397 13.4058895 13.4058895 13.852222 13.852222 13.562078
          13.562078 13.873348 13.873348 13.980022 13.980022 13.8940115
          13.8940115 13.876616 13.876616 14.5326185 14.5326185 14.197397
          14.197397 14.797835 14.797835 14.75908 14.75908 15.1975765
          15.1975765 14.432005 14.432005 15.199346 15.199346 15.464007
          15.464007 14.572613 14.572613 14.43589 14.43589 15.847382
          15.847382 15.25339 15.25339 14.628406 14.628406 16.159073
          16.159073 14.719925 14.719925 14.784658 14.784658 16.235228
          16.235228 16.262957 16.262957 14.796796 14.796796 14.977318
          14.977318 16.249546 16.249546 16.27568 16.27568 15.150389
          15.150389 14.84933 14.84933 16.606594 16.606594 16.509258
          16.509258 15.589803 15.589803 15.529971 15.529971 17.798035
          17.798035 16.881144 16.881144 15.598992 15.598992 15.682032
          15.682032 16.24858 16.24858 15.924784 15.924784 16.365318
          16.365318 16.453608 16.453608 16.56453 16.56453 17.952225
          17.952225 16.634865 16.634865 16.627693 16.627693 16.688927
          16.688927 17.138945 17.138945 16.887373 16.887373 16.701809
          16.701809 17.14728 17.14728 17.195185 17.195185 18.579382
          18.579382 17.598179 17.598179 17.750198 17.750198 17.706142
          17.706142 21.625237 21.625237 20.374537 20.374537 17.829382
          17.829382 17.827171 17.827171 21.761631 21.761631 22.001717
          22.001717 17.975428 17.975428 17.87208 17.87208 22.00058
          22.00058 21.831392 21.831392 17.982178 17.982178 17.997856
          17.997856 22.103806 22.103806 22.631214 22.631214 18.340925
          18.340925 18.048027 18.048027 22.116526 22.116526 23.026459
          23.026459 18.489485 18.489485 18.4197 18.4197 22.56407
          22.56407 22.234945 22.234945 18.530602 18.530602 18.518608
          18.518608 22.768915 22.768915 22.640203 22.640203 22.655436
          22.655436 23.185328 23.185328 18.712503 18.712503 18.61162
          18.61162 22.84891 22.84891 23.471573 23.471573 18.725018
          18.725018 18.925203 18.925203 22.848911 22.848911 25.744606
          25.744606 18.85871 18.85871 18.87853 18.87853 25.37686
          25.37686 23.23544 23.23544 25.796738 25.796738 32.595592
          32.595592 18.957022 18.957022 18.871698 18.871698 26.112038
          26.112038 25.72924 25.72924 25.843117 25.843117 25.80558
          25.80558 19.427187 19.427187 18.972527 18.972527 28.515116
          28.515116 27.129404 27.129404 26.810139 26.810139 29.017307
          29.017307 31.298586 31.298586 26.53943 26.53943 19.54868
          19.54868 19.488695 19.488695 31.033169 31.033169 27.016102
          27.016102 33.61375 33.61375 31.513025 31.513025 31.23299
          31.23299 31.96414 31.96414 35.06683 35.06683 33.874012
          33.874012 33.01144 33.01144 31.934177 31.934177 35.09886
          35.09886 35.081066 35.081066 33.072155 33.072155 33.140656
          33.140656 34.345997 34.345997 33.61467 33.61467 35.324783
          35.324783 35.872723 35.872723 36.006565 36.006565 35.519184
          35.519184 39.465324 39.465324 38.160366 38.160366 36.665245
          36.665245 36.196754 36.196754 41.02051 41.02051 40.91301
          40.91301 41.334743 41.334743 40.03021 40.03021 41.6867
          41.6867 41.535442 41.535442 41.452675 41.452675 41.916023
          41.916023 41.36499 41.36499 42.52353 42.52353 41.786694
          41.786694 42.116657 42.116657 41.92505 41.92505 43.782524
          43.782524 43.028034 43.028034 44.099392 44.099392 43.950836
          43.950836 44.6437 44.6437 44.12335 44.12335 45.27766
          45.27766 44.69125 44.69125 46.92683 46.92683 46.753002
          46.753002 47.159584 47.159584 48.08953 48.08953 47.300358
          47.300358 48.442657 48.442657 47.47963 47.47963 49.039833
          49.039833 47.648525 47.648525 48.677883 48.677883 49.75232
          49.75232 49.67535 49.67535 50.763058 50.763058 51.498184
          51.498184 51.003147 51.003147 50.883358 50.883358 51.22916
          51.22916 52.38086 52.38086 53.493454 53.493454 51.973454
          51.973454 54.9982 54.9982 54.62332 54.62332 56.381428
          56.381428 55.493534 55.493534 54.963608 54.963608 54.886215
          54.886215 57.94256 57.94256 55.15249 55.15249 58.605495
          58.605495 58.395653 58.395653 60.12956 60.12956 58.71519
          58.71519 61.503674 61.503674 61.28492 61.28492 62.980206
          62.980206 61.880665 61.880665 64.90024 64.90024 63.445614
          63.445614 65.716995 65.716995 66.35559 66.35559 64.9879
          64.9879 65.93211 65.93211 69.26751 69.26751 65.93956
          65.93956 67.11525 67.11525 66.12872 66.12872 68.684494
          68.684494 66.186134 66.186134 66.17029 66.17029 69.35766
          69.35766 66.67013 66.67013 70.75895 70.75895 69.53139
          69.53139
        </DataArray>
      </PointData>
      <CellData>
        <DataArray type="Float64" Name="NodeId" format="ascii" RangeMin="1" RangeMax="1134">
          1134 1134 1133 1133 1134 1131
          1131 1134 1129 1129 1134 1128
          1128 1134 1126 1126 1134 1124
          1124 1134 1123 1123 1134 1121
          1121 1134 1120 1120 1134 1119
          1119 1134 1117 1117 1134 1116
          1116 1134 1110 1110 1134 1108
          1108 1134 1105 1105 1134 1104
          1104 1134 1103 1103 1134 1100
          1100 1134 1097 1097 1134 1096
          1096 1134 1095 1095 1134 1092
          1092 1134 1091 1091 1134 1089
          1089 1134 1087 1087 1134 1086
          1086 1134 1085 1085 1134 1083
          1083 1134 1082 1082 1134 1079
          1079 1134 1076 1076 1134 1075
          1075 1134 1074 1074 1134 1070
          1070 1134 1069 1069 1134 1067
          1067 1134 1066 1066 1134 1063
          1063 1134 1061 1061 1134 1060
          1060 1134 1057 1057 1134 1053
          1053 1134 1050 1050 1134 1047
          1047 1134 1046 1046 1134 1045
          1045 1134 1042 1042 1134 1040
          1040 1134 1038 1038 1134 1036
          1036 1134 1033 1033 1134 1031
          1031 1134 1030 1030 1134 1029
          1029 1134 1027 1027 1134 1026
          1026 1134 1024 1024 1134 1022
          1022 1134 1020 1020 1134 1018
          1018 1134 1017 1017 1134 1015
          1015 1134 1013 1013 1134 1010
          1010 1134 1005 1005 1134 1004
          1004 1134 1003 1003 1134 1002
          1002 1134 1001 1001 1134 995
          995 1134 993 993 1134 992
          992 1134 990 990 1134 988
          988 1134 987 987 1134 985
          985 1134 984 984 1134 982
          982 1134 980 980 1134 978
          978 1134 976 976 1134 975
          975 1134 973 973 1134 972
          972 1134 969 969 1134 968
          968 1134 967 967 1134 963
          963 1134 961 961 1134 960
          960 1134 959 959 1134 955
          955 1134 954 954 1134 953
          953 1134 952 952 1134 947
          947 1134 946 946 1134 945
          945 1134 944 944 1134 940
          940 1134 937 937 1134 936
          936 1134 935 935 1134 933
          933 1134 931 931 1134 928
          928 1134 926 926 1134 925
          925 1134 924 924 1134 922
          922 1134 921 921 1134 920
          920 1134 918 918 1134 914
          914 1134 912 912 1134 910
          910 1134 909 909 1134 907
          907 1134 906 906 1134 905
          905 1134 902 902 1134 901
          901 1134 898 898 1134 897
          897 1134 895 895 1134 893
          893 1134 892 892 1134 891
          891 1134 890 890 1134 886
          886 1134 880 880 1134 878
          878 1134 877 877 1134 876
          876 1134 875 875 1134 872
          872 1134 869 869 1134 866
          866 1134 865 865 1134 864
          864 1134 863 863 1134 859
          859 1134 858 858 1134 856
          856 1134 855 855 1134 854
          854 853 853 1134 853 793
          793 1134 851 851 1134 848
          848 1134 845 845 1134 844
          844 1134 843 843 1134 841
          841 1134 840 840 1134 839
          839 837 837 1134 837 642
          642 1134 836 836 1134 832
          832 1134 827 827 1134 826
          826 1134 824 824 1134 822
          822 1134 821 821 1134 819
          819 1134 817 817 1134 815
          815 1134 813 813 1134 812
          812 1134 811 811 1134 810
          810 1134 809 809 1134 807
          807 1134 802 802 1134 798
          798 1134 797 797 1134 794
          794 1134 792 792 1134 790
          790 1134 789 789 1134 786
          786 1134 785 785 1134 784
          784 1134 782 782 1134 781
          781 1134 779 779 1134 774
          774 1134 773 773 1 1134
          772 772 773 667 667 1134
          770 770 773 635 635 1134
          769 769 1134 768 768 1134
          766 766 1134 765 765 1134
          763 763 1134 759 759 1134
          758 758 1134 753 753 1134
          752 752 750 750 1134 750
          719 719 1134 749 749 1134
          745 745 1134 741 741 1134
          740 740 1134 737 737 1134
          734 734 1134 732 732 1134
          730 730 1134 726 726 1134
          723 723 1134 717 717 1
          1134 715 715 1134 714 714
          1134 713 713 1134 712 712