<VTKFile type="UnstructuredGrid" version="1.0" byte_order="LittleEndian" header_type="UInt64">
  <UnstructuredGrid>
    <FieldData>
      <DataArray type="Float64" Name="ClusterID" NumberOfTuples="1" format="ascii" RangeMin="0" RangeMax="0">
        0
      </DataArray>
      <DataArray type="Float64" Name="TimeStep" NumberOfTuples="1" format="ascii" RangeMin="2" RangeMax="2">
        2
      </DataArray>
      <Array type="String" Name="FILE" NumberOfTuples="1" format="ascii">
        67 58 47 85 115 101 114 115 47 71 114 97 99 101 47 68 111 99 117 109 101 110 116 115 47 67 108 101 109 115 111 110 47 83 112 114 105 110 103 32 50 48 50 52 47 67 80 83 67 32 56 48 51 48 32 83 99 105 101 110 116 105 102 105 99 32 86 105 115 117 97 108 105 122 97 116 105 111 110 47 56 48 51 48 95 112 97 114 97 118 105 101 119 95 112 97 108 109 101 116 116 111 47 105 115 97 98 101 108 95 115 109 97 108 108 47 73 115 97 98 101 108 95 115 109 97 108 108 46 99 100 98 47 100 97 116 97 47 105 115 97 98 101 108 95 48 50 46 118 116 105 0
      </Array>
      <DataArray type="Float64" Name="ClusterAssignment" NumberOfTuples="1" format="ascii" RangeMin="0" RangeMax="0">
        0
      </DataArray>
    </FieldData>
    <Piece NumberOfPoints="87" NumberOfCells="0">
      <PointData>
        <DataArray type="Int32" Name="NodeId" format="ascii" RangeMin="0" RangeMax="86">
          0 2 2 4 4 6
          6 8 8 10 10 12
          12 14 14 16 16 18
          18 20 20 22 22 24
          24 26 26 28 28 30
          30 32 32 34 34 36
          36 38 38 40 40 42
          42 44 44 46 46 48
          48 50 50 52 52 54
          54 56 56 58 58 60
          60 62 62 64 64 66
          66 68 68 70 70 72
          72 74 74 76 76 78
          78 80 80 82 82 84
          84 86 86
        </DataArray>
        <DataArray type="Float32" Name="Scalar" format="ascii" RangeMin="0" RangeMax="68.24547576904297">
          0 4.71622 4.71622 4.81491 4.81491 6.346629
          6.346629 6.402103 6.402103 6.8415527 6.8415527 6.975126
          6.975126 8.66318 8.66318 7.447213 7.447213 9.956791
          9.956791 7.4504876 7.4504876 9.04947 9.04947 7.574028
          7.574028 9.681557 9.681557 9.025247 9.025247 9.621111
          9.621111 9.321024 9.321024 10.701988 10.701988 11.006116
          11.006116 9.847541 9.847541 11.449314 11.449314 13.370397
          13.370397 11.270831 11.270831 11.294858 11.294858 13.60547
          13.60547 13.019063 13.019063 15.0797615 15.0797615 14.108878
          14.108878 17.64908 17.64908 17.450363 17.450363 22.126005
          22.126005 19.352354 19.352354 27.765509 27.765509 30.192842
          30.192842 35.78696 35.78696 32.41364 32.41364 30.493153
          30.493153 31.824894 31.824894 46.190216 46.190216 32.2407
          32.2407 60.47409 60.47409 51.50507 51.50507 68.245476
          68.245476 62.73317 62.73317
        </DataArray>
        <DataArray type="Int32" Name="VertexId" format="ascii" RangeMin="0" RangeMax="386749">
          0 31669 31669 31915 31915 15671
          15671 23625 23625 31917 31917 385351
          385351 23876 23876 385098 385098 385223
          385223 37260 37260 385097 385097 22880
          22880 37878 37878 306101 306101 23252
          23252 386749 386749 321726 321726 386336
          386336 385744 385744 384210 384210 386600
          386600 267366 267366 385123 385123 383467
          383467 384082 384082 20199 20199 268499
          268499 223554 223554 19317 19317 242564
          242564 236338 236338 277280 277280 226712
          226712 243644 243644 281045 281045 229218
          229218 242578 242578 103102 103102 244969
          244969 40462 40462 117976 117976 25342
          25342 24213 24213
        </DataArray>
        <DataArray type="Int32" Name="CriticalType" format="ascii" RangeMin="0" RangeMax="3">
          0 2 2 2 2 3
          3 2 2 3 3 2
          2 3 3 2 2 3
          3 2 2 3 3 2
          2 3 3 2 2 3
          3 2 2 3 3 2
          2 2 2 2 2 3
          3 2 2 3 3 3
          3 3 3 2 2 3
          3 2 2 3 3 2
          2 3 3 2 2 2
          2 3 3 3 3 2
          2 3 3 2 2 3
          3 2 2 3 3 3
          3 3 3
        </DataArray>
        <DataArray type="Float64" Name="RegionSize" format="ascii" RangeMin="0" RangeMax="11986">
          11986 1260 1260 195 195 1
          1 1518 1518 2 2 545
          545 25 25 0 0 1
          1 431 431 0 0 9
          9 64 64 845 845 28
          28 211 211 3 3 85
          85 32 32 88 88 158
          158 2116 2116 29 29 36
          36 1 1 4439 4439 140
          140 2822 2822 1 1 11930
          11930 1 1 703 703 8811
          8811 120 120 205 205 205
          205 19 19 4763 4763 1
          1 103 103 0 0 2
          2 29 29
        </DataArray>
        <DataArray type="Float64" Name="RegionSpan" format="ascii" RangeMin="4" RangeMax="558">
          161 140 140 167 167 9
          9 558 558 8 8 423
          423 8 8 14 14 5
          5 316 316 4 4 39
          39 16 16 206 206 17
          17 340 340 4 4 44
          44 113 113 60 60 51
          51 230 230 36 36 8
          8 5 5 306 306 39
          39 139 139 5 5 273
          273 5 5 158 158 92
          92 20 20 72 72 83
          83 21 21 67 67 4
          4 42 42 4 4 5
          5 20 20
        </DataArray>
        <DataArray type="Float64" Name="Persistence" format="ascii" RangeMin="1.447317123413086" RangeMax="68.24547576904297">
          68.24547576904297 1.6304092407226562 1.6304092407226562 2.0266427993774414 2.0266427993774414 1.6304092407226562
          1.6304092407226562 2.261077404022217 2.261077404022217 2.0266427993774414 2.0266427993774414 2.9816651344299316
          2.9816651344299316 2.261077404022217 2.261077404022217 1.6022567749023438 1.6022567749023438 2.9816651344299316
          2.9816651344299316 2.2310690879821777 2.2310690879821777 1.6022567749023438 1.6022567749023438 2.0470829010009766
          2.0470829010009766 2.2310690879821777 2.2310690879821777 1.676741600036621 1.676741600036621 2.0470829010009766
          2.0470829010009766 4.284445762634277 4.284445762634277 1.676741600036621 1.676741600036621 2.3642807006835938
          2.3642807006835938 1.447317123413086 1.447317123413086 1.569748878479004 1.569748878479004 2.3642807006835938
          2.3642807006835938 2.8380470275878906 2.8380470275878906 1.447317123413086 1.447317123413086 4.284445762634277
          4.284445762634277 1.569748878479004 1.569748878479004 2.3706016540527344 2.3706016540527344 2.8380470275878906
          2.8380470275878906 1.7032737731933594 1.7032737731933594 2.3706016540527344 2.3706016540527344 13.660955429077148
          13.660955429077148 1.7032737731933594 1.7032737731933594 4.648130416870117 4.648130416870117 1.6320514678955078
          1.6320514678955078 13.660955429077148 13.660955429077148 4.648130416870117 4.648130416870117 1.7475471496582031
          1.7475471496582031 1.6320514678955078 1.6320514678955078 5.314853668212891 5.314853668212891 1.7475471496582031
          1.7475471496582031 2.2590789794921875 2.2590789794921875 5.314853668212891 5.314853668212891 68.24547576904297
          68.24547576904297 2.2590789794921875 2.2590789794921875
        </DataArray>
        <DataArray type="Int32" Name="ClusterID" format="ascii" RangeMin="0" RangeMax="0">
          0 0 0 0 0 0
          0 0 0 0 0 0
          0 0 0 0 0 0
          0 0 0 0 0 0
          0 0 0 0 0 0
          0 0 0 0 0 0
          0 0 0 0 0 0
          0 0 0 0 0 0
          0 0 0 0 0 0
          0 0 0 0 0 0
          0 0 0 0 0 0
          0 0 0 0 0 0
          0 0 0 0 0 0
          0 0 0 0 0 0
          0 0 0
        </DataArray>
        <DataArray type="Int32" Name="TreeID" format="ascii" RangeMin="0" RangeMax="0">
          0 0 0 0 0 0
          0 0 0 0 0 0
          0 0 0 0 0 0
          0 0 0 0 0 0
          0 0 0 0 0 0
          0 0 0 0 0 0
          0 0 0 0 0 0
          0 0 0 0 0 0
          0 0 0 0 0 0
          0 0 0 0 0 0
          0 0 0 0 0 0
          0 0 0 0 0 0
          0 0 0 0 0 0
          0 0 0 0 0 0
          0 0 0
        </DataArray>
        <DataArray type="Int32" Name="TrueNodeId" format="ascii" RangeMin="0" RangeMax="43">
          43 37 37 35 35 36
          36 33 33 34 34 31
          31 32 32 29 29 30
          30 27 27 28 28 25
          25 26 26 23 23 24
          24 41 41 22 22 19
          19 21 21 15 15 18
          18 17 17 20 20 40
          40 14 14 13 13 16
          16 11 11 12 12 39
          39 10 10 9 9 7
          7 38 38 8 8 5
          5 6 6 3 3 4
          4 1 1 2 2 42
          42 0 0
        </DataArray>
        <DataArray type="Int32" Name="isImportantPair" format="ascii" RangeMin="0" RangeMax="1">
          1 0 0 0 0 0
          0 0 0 0 0 0
          0 0 0 0 0 0
          0 0 0 0 0 0
          0 0 0 0 0 0
          0 0 0 0 0 0
          0 0 0 0 0 0
          0 0 0 0 0 0
          0 0 0 0 0 0
          0 0 0 0 0 1
          1 0 0 0 0 0
          0 1 1 0 0 0
          0 0 0 0 0 0
          0 0 0 0 0 1
          1 0 0
        </DataArray>
        <DataArray type="Int32" Name="isMultiPersPairNode" format="ascii" RangeMin="0" RangeMax="0">
          0 0 0 0 0 0
          0 0 0 0 0 0
          0 0 0 0 0 0
          0 0 0 0 0 0
          0 0 0 0 0 0
          0 0 0 0 0 0
          0 0 0 0 0 0
          0 0 0 0 0 0
          0 0 0 0 0 0
          0 0 0 0 0 0
          0 0 0 0 0 0
          0 0 0 0 0 0
          0 0 0 0 0 0
          0 0 0 0 0 0
          0 0 0
        </DataArray>
        <DataArray type="Int32" Name="BranchNodeID" format="ascii" RangeMin="0" RangeMax="21">
          0 1 1 2 2 1
          1 3 3 2 2 4
          4 3 3 5 5 4
          4 6 6 5 5 7
          7 6 6 8 8 7
          7 9 9 8 8 10
          10 11 11 12 12 10
          10 13 13 11 11 9
          9 12 12 14 14 13
          13 15 15 14 14 16
          16 15 15 17 17 18
          18 16 16 17 17 19
          19 18 18 20 20 19
          19 21 21 20 20 0
          0 21 21
        </DataArray>
        <DataArray type="Int32" Name="isDummyNode" format="ascii" RangeMin="0" RangeMax="1">
          0 0 1 0 1 0
          1 0 1 0 1 0
          1 0 1 0 1 0
          1 0 1 0 1 0
          1 0 1 0 1 0
          1 0 1 0 1 0
          1 0 1 0 1 0
          1 0 1 0 1 0
          1 0 1 0 1 0
          1 0 1 0 1 0
          1 0 1 0 1 0
          1 0 1 0 1 0
          1 0 1 0 1 0
          1 0 1 0 1 0
          1 0 1
        </DataArray>
        <DataArray type="Int32" Name="BranchBaryNodeID" format="ascii" RangeMin="0" RangeMax="21">
          0 1 1 2 2 1
          1 3 3 2 2 4
          4 3 3 5 5 4
          4 6 6 5 5 7
          7 6 6 8 8 7
          7 9 9 8 8 10
          10 11 11 12 12 10
          10 13 13 11 11 9
          9 12 12 14 14 13
          13 15 15 14 14 16
          16 15 15 17 17 18
          18 16 16 17 17 19
          19 18 18 20 20 19
          19 21 21 20 20 0
          0 21 21
        </DataArray>
        <DataArray type="Float32" Name="PersistenceBarycenter" format="ascii" RangeMin="1.447317123413086" RangeMax="68.24547576904297">
          68.245476 1.6304092 1.6304092 2.0266428 2.0266428 1.6304092
          1.6304092 2.2610774 2.2610774 2.0266428 2.0266428 2.9816651
          2.9816651 2.2610774 2.2610774 1.6022568 1.6022568 2.9816651
          2.9816651 2.231069 2.231069 1.6022568 1.6022568 2.047083
          2.047083 2.231069 2.231069 1.6767416 1.6767416 2.047083
          2.047083 4.284446 4.284446 1.6767416 1.6767416 2.3642807
          2.3642807 1.4473171 1.4473171 1.5697489 1.5697489 2.3642807
          2.3642807 2.838047 2.838047 1.4473171 1.4473171 4.284446
          4.284446 1.5697489 1.5697489 2.3706017 2.3706017 2.838047
          2.838047 1.7032738 1.7032738 2.3706017 2.3706017 13.660955
          13.660955 1.7032738 1.7032738 4.6481304 4.6481304 1.6320515
          1.6320515 13.660955 13.660955 4.6481304 4.6481304 1.7475471
          1.7475471 1.6320515 1.6320515 5.3148537 5.3148537 1.7475471
          1.7475471 2.259079 2.259079 5.3148537 5.3148537 68.245476
          68.245476 2.259079 2.259079
        </DataArray>
        <DataArray type="Int32" Name="PersistenceBarycenterOrder" format="ascii" RangeMin="0" RangeMax="21">
          0 18 18 13 13 18
          18 9 9 13 13 5
          5 9 9 19 19 5
          5 11 11 19 19 12
          12 11 11 16 16 12
          12 4 4 16 16 8
          8 21 21 20 20 8
          8 6 6 21 21 4
          4 20 20 7 7 6
          6 15 15 7 7 1
          1 15 15 3 3 17
          17 1 1 3 3 14
          14 17 17 2 2 14
          14 10 10 2 2 0
          0 10 10
        </DataArray>
        <DataArray type="Float64" Name="Birth" format="ascii" RangeMin="0" RangeMax="60.474090576171875">
          0 4.716219902038574 4.716219902038574 4.814909934997559 4.814909934997559 4.716219902038574
          4.716219902038574 6.402102947235107 6.402102947235107 4.814909934997559 4.814909934997559 6.975125789642334
          6.975125789642334 6.402102947235107 6.402102947235107 7.447213172912598 7.447213172912598 6.975125789642334
          6.975125789642334 7.4504876136779785 7.4504876136779785 7.447213172912598 7.447213172912598 7.574028015136719
          7.574028015136719 7.4504876136779785 7.4504876136779785 9.025246620178223 9.025246620178223 7.574028015136719
          7.574028015136719 9.321023941040039 9.321023941040039 9.025246620178223 9.025246620178223 11.006115913391113
          11.006115913391113 9.847540855407715 9.847540855407715 11.44931411743164 11.44931411743164 11.006115913391113
          11.006115913391113 11.270831108093262 11.270831108093262 9.847540855407715 9.847540855407715 9.321023941040039
          9.321023941040039 11.44931411743164 11.44931411743164 15.079761505126953 15.079761505126953 11.270831108093262
          11.270831108093262 17.649080276489258 17.649080276489258 15.079761505126953 15.079761505126953 22.126005172729492
          22.126005172729492 17.649080276489258 17.649080276489258 27.7655086517334 27.7655086517334 30.192842483520508
          30.192842483520508 22.126005172729492 22.126005172729492 27.7655086517334 27.7655086517334 30.493152618408203
          30.493152618408203 30.192842483520508 30.192842483520508 46.190216064453125 46.190216064453125 30.493152618408203
          30.493152618408203 60.474090576171875 60.474090576171875 46.190216064453125 46.190216064453125 0
          0 60.474090576171875 60.474090576171875
        </DataArray>
      </PointData>
      <CellData>
      </CellData>
      <Points>
        <DataArray type="Float32" Name="Points" NumberOfComponents="3" format="ascii" RangeMin="87.2512758630075" RangeMax="120.5721610113446">
          -99.3992 0 0 -102.02626 4.71622 0
          -99.3992 4.71622 0 -101.992134 4.81491 0
          -99.3992 4.81491 0 -102.02626 6.346629 0
          -102.02626 6.346629 0 -101.95801 6.402103 0
          -99.3992 6.402103 0 -101.992134 6.8415527 0
          -101.992134 6.8415527 0 -101.92389 6.975126 0
          -99.3992 6.975126 0 -101.95801 8.66318 0
          -101.95801 8.66318 0 -101.88976 7.447213 0
          -99.3992 7.447213 0 -101.92389 9.956791 0
          -101.92389 9.956791 0 -101.855644 7.4504876 0
          -99.3992 7.4504876 0 -101.88976 9.04947 0
          -101.88976 9.04947 0 -101.82152 7.574028 0
          -99.3992 7.574028 0 -101.855644 9.681557 0
          -101.855644 9.681557 0 -101.7874 9.025247 0
          -99.3992 9.025247 0 -101.82152 9.621111 0
          -101.82152 9.621111 0 -101.68503 9.321024 0
          -99.3992 9.321024 0 -101.7874 10.701988 0
          -101.7874 10.701988 0 -101.75327 11.006116 0
          -101.68503 11.006116 0 -101.65091 9.847541 0
          -99.3992 9.847541 0 -101.719154 11.449314 0
          -101.68503 11.449314 0 -101.75327 13.370397 0
          -101.75327 13.370397 0 -101.61678 11.270831 0
          -99.3992 11.270831 0 -101.65091 11.294858 0
          -101.65091 11.294858 0 -101.68503 13.60547 0
          -101.68503 13.60547 0 -101.719154 13.019063 0
          -101.719154 13.019063 0 -101.61678 15.0797615 0
          -99.3992 15.0797615 0 -101.61678 14.108878 0
          -101.61678 14.108878 0 -101.61678 17.64908 0
          -99.3992 17.64908 0 -101.61678 17.450363 0
          -101.61678 17.450363 0 -84.3992 22.126005 0
          -99.3992 22.126005 0 -101.61678 19.352354 0
          -101.61678 19.352354 0 -86.67821 27.765509 0
          -84.3992 27.765509 0 -101.65091 30.192842 0
          -99.3992 30.192842 0 -84.3992 35.78696 0
          -84.3992 35.78696 0 -86.67821 32.41364 0
          -86.67821 32.41364 0 -101.61678 30.493153 0
          -99.3992 30.493153 0 -101.65091 31.824894 0
          -101.65091 31.824894 0 -101.61678 46.190216 0
          -99.3992 46.190216 0 -101.61678 32.2407 0
          -101.61678 32.2407 0 -101.61678 60.47409 0
          -99.3992 60.47409 0 -101.61678 51.50507 0
          -101.61678 51.50507 0 -99.3992 68.245476 0
          -99.3992 68.245476 0 -101.61678 62.73317 0
          -101.61678 62.73317 0
          <InformationKey name="L2_NORM_RANGE" location="vtkDataArray" length="2">
            <Value index="0">
              87.251275863
            </Value>
            <Value index="1">
              120.57216101
            </Value>
          </InformationKey>
          <InformationKey name="L2_NORM_FINITE_RANGE" location="vtkDataArray" length="2">
            <Value index="0">
              87.251275863
            </Value>
            <Value index="1">
              120.57216101
            </Value>
          </InformationKey>
        </DataArray>
      </Points>
      <Cells>
        <DataArray type="Int64" Name="connectivity" format="ascii" RangeMin="1e+299" RangeMax="-1e+299">
        </DataArray>
        <DataArray type="Int64" Name="offsets" format="ascii" RangeMin="1e+299" RangeMax="-1e+299">
        </DataArray>
        <DataArray type="UInt8" Name="types" format="ascii" RangeMin="1e+299" RangeMax="-1e+299">
        </DataArray>
      </Cells>
    </Piece>
  </UnstructuredGrid>
</VTKFile>
